ITEM: TIMESTEP
16000
ITEM: NUMBER OF ATOMS
5376
ITEM: BOX BOUNDS pp pp pp
0.0 42.7297273569
0.0 39.5600404449
0.0 37.0050293879
ITEM: ATOMS id type x y z
5216 1 1.69418147904 1.2548785992 1.96284587813
19 1 0.11157660249 2.82824812644 0.123049188974
193 1 1.92751684872 3.82820425595 1.89118640918
5 1 4.09606896998 1.97070499589 1.61442075795
8 1 6.31889617709 2.87882784059 1.22832510134
9 1 6.26193868634 0.383144055197 1.19879064975
25 1 5.5070330504 1.2169248326 3.38628727827
4 1 5.51538953677 3.71567565639 3.35929905758
7 1 7.78110417668 2.05775396031 2.98619897365
10 1 10.0767042917 2.88203644992 2.57483000419
11 1 10.0101225308 0.405283774482 2.55656469473
12 1 8.5454729746 1.22755561493 0.797558810599
1347 1 10.8440748324 2.05445074702 0.379160435374
1 1 8.60417152503 3.7067462875 0.826856702283
1349 1 14.4471474821 2.13072526962 1.76529864527
1363 1 12.2578696147 1.23140865068 2.17125349232
1346 1 12.3804511839 3.70493763378 2.1521943777
1352 1 16.6777784928 2.88138782405 1.55367934683
1353 1 16.6682781976 0.401412590715 1.36606527274
1540 1 18.2870568872 1.97257871479 3.38639180654
1356 1 18.7930812929 1.57655440022 1.07393301938
1369 2 15.9230580347 1.46337279254 3.49740928353
1348 1 16.0871138919 3.77376026571 3.68244374069
2710 1 21.5412177842 1.38753935215 0.46747053686
2863 1 20.3252921739 3.01560209117 2.54814684427
1355 1 20.5913499702 0.41315044896 2.42965585939
1513 2 20.1508372175 3.25711098997 0.241342321054
1354 2 22.560336297 1.84520113768 2.57045541896
2689 1 22.2001999624 3.8662803759 1.40348566044
2694 1 24.5823889878 3.01433294709 2.28385362056
2699 1 26.065091785 1.27128674683 0.485696393544
2698 1 26.077112737 3.71544583892 0.481064783963
3868 1 26.8612206573 2.10559606758 2.62699166647
2709 1 24.5454911861 0.516514276156 2.2651813072
2693 1 23.8388584831 2.26073224135 0.0791305303161
2697 1 28.3429367824 2.86256886875 0.895308304449
2714 1 29.0855674482 1.18101796982 3.11183786672
2717 1 30.5780062125 1.98268652067 1.34042554246
2718 1 28.3021628312 0.381418395573 0.912041044864
2713 1 29.0481946806 3.66171292696 3.11397337166
4039 1 32.8181493681 1.1197081972 1.75957669191
4038 1 32.829916867 3.59321531857 1.78741725222
2734 1 31.3314557264 0.311292426661 3.54412937473
2712 1 31.3062687015 2.79369713351 3.54839619641
4044 1 34.3596534594 1.92317225207 0.0020987220987
4060 1 35.0578506544 0.268296421816 2.14443837258
4037 1 35.0889343838 2.73233890428 2.20849358457
4043 1 36.6386817704 1.09119112122 0.415572286207
4059 1 37.3614650303 1.87732330373 2.63011394327
4042 1 36.5764896071 3.55555369364 0.446711913077
4041 1 38.8263801508 2.73126288198 0.86198506188
4062 1 38.9234220904 0.278846746571 0.900265326207
17 1 42.5207470818 3.4157440607 2.56551201035
38 2 42.6873938269 0.399347420336 0.458288146151
4058 1 39.6443466827 1.00731693769 3.15992339224
4057 1 39.5811396634 3.5254271271 3.08187683172
4056 2 42.2369227967 1.31338665737 3.29095157464
4196 1 40.9490361437 1.95820516737 1.35645335815
187 1 0.398259603344 5.79441243955 1.77242146832
185 1 2.02293113736 7.31223664457 3.3212548581
331 1 2.1862792649 6.74553454675 0.544047890105
392 2 3.33057660819 5.17156188071 3.65498651356
194 1 4.06399179415 4.58310056087 1.51045686841
173 1 4.13633453388 7.00129834355 1.95213359194
177 1 6.34005712255 5.36507115133 1.29017301442
172 1 5.63477634163 6.17938806777 3.47532771286
176 1 6.32477058984 7.79311445344 1.28530869072
196 1 7.79156919056 4.503857585 3.00992154401
175 2 7.93322973666 6.90376616627 2.97299542066
179 1 10.0653181017 5.34778637012 2.56263043479
180 1 8.57742377985 6.17411725867 0.774206757019
1532 1 10.8724465638 4.54393739255 0.372563906434
1515 1 10.8200558434 7.01122173986 0.348664552227
178 1 10.0384652141 7.82633009692 2.55200403357
1517 1 14.5420666754 7.05052675456 1.60811384571
1531 1 12.3232574723 6.17221436769 2.1317934923
1538 1 14.6706177047 4.57973737838 1.7355521812
1345 1 17.8997683368 4.19073285129 0.0736206729017
1519 1 18.2918913652 4.46740351213 3.07747859878
1521 1 16.8916344633 5.69377624752 1.3957656721
1839 1 18.346248266 6.90077285118 3.13097716299
1537 2 15.9622490848 6.33957316743 3.416119976
1524 1 19.7331122287 5.31925546553 1.31746635904
2868 1 22.2560279299 6.31418120727 1.69837281171
1523 1 20.8015696078 5.4556913683 3.41195370745
2692 1 26.7786365867 4.58272401554 2.68611955403
2867 1 26.1417911536 6.19304614384 0.599250453959
2883 1 26.7756241211 7.04777672871 2.75155943658
2884 1 24.4810833751 5.38431398364 2.26218546836
2857 2 24.0926450771 6.92629103537 0.141949177588
2861 1 24.4296623469 7.89726119285 2.41892205974
2696 1 30.5859518846 4.45875764529 1.36499962331
2882 1 29.0504435814 6.14166663684 3.14347209233
2885 1 30.5459113893 6.94105606746 1.36107868155
2886 1 28.3537848669 5.33144602916 0.955376499498
2865 1 28.2723278143 7.80484455091 0.947417941123
4207 1 32.8001431485 6.07521782792 1.79113101168
2880 1 31.3072507203 7.74693547673 3.55594808898
2902 1 31.3088058908 5.26982811782 3.56272107827
4033 1 34.3223663552 4.39926853794 0.0199511891873
4212 1 34.2757490665 6.88314669401 0.0152256011187
4228 1 35.0558177823 5.21645310704 2.22107027598
4205 1 35.0247284129 7.7063924478 2.21050194682
4036 1 37.3195225414 4.36247677166 2.66294568512
4211 1 36.5138880892 6.04215894296 0.438973741533
4227 1 37.2418467096 6.85948020712 2.64771274895
4209 1 38.755054774 7.6738765526 0.882001756077
4230 1 38.7189843251 5.20147741334 0.852437854841
4061 1 40.9197155044 4.41347362677 1.17809148728
4226 1 39.4167573053 6.0310987415 3.08801295602
4397 1 40.979415796 6.84239866698 1.38548926682
4246 2 41.4652794554 5.24796132543 3.41666003637
182 1 41.9767928181 7.52128637213 3.59162598375
4229 1 0.539942830786 8.49719769772 1.79311223122
355 2 2.80170213518 8.69964288942 1.33397221281
500 1 2.68061326053 10.2885440799 3.0181126491
374 2 0.293653075378 10.9140815564 1.97946753724
361 2 5.47037670101 8.78925970365 3.36246655544
345 1 6.08044033608 10.2938595471 1.30854478973
364 1 7.6872460072 9.44890599821 2.98978625394
353 1 5.20414845795 11.0936568116 3.59206280299
169 1 8.48246181293 8.65352178793 0.812187143016
347 1 9.91682142645 10.2889914474 2.59137635119
348 1 8.38203821178 11.1067485783 0.87379073681
1700 1 10.7140063319 9.4747520644 0.391472367241
1514 1 12.2508531026 8.63245167308 2.12734184592
1699 1 12.1599409918 11.1263553803 2.18294679676
1706 1 14.4052593643 9.55974393924 1.76589970906
1520 2 17.7613204679 8.20228036014 1.20819000861
1689 1 16.6566013201 10.3624263525 1.13988168482
1705 1 16.1033619965 11.2330884518 3.41133454878
1708 1 18.1742169635 9.60207664081 3.05487019392
1516 1 16.0058306477 8.72515649733 3.39065241743
1848 1 19.0141236762 9.97604808128 0.720585910392
1688 1 18.4370968354 11.8171864314 1.9467141267
1842 1 20.1382004343 7.94943718919 2.10884845933
2862 2 22.2363368637 8.79113261708 1.84048157962
1692 1 20.6321333996 10.358925013 3.06974977624
3031 1 22.6100460743 11.1960402803 1.87173489048
1876 2 20.621470939 11.4543321655 0.861567075944
2860 1 26.8269440369 9.46735859363 2.70355836736
2866 1 25.9931472618 8.65971816858 0.563060498817
3035 1 26.1964703322 11.1379937975 0.3990925281
3052 2 24.8410455896 10.4636159786 2.0150095067
2864 1 30.5689661067 9.4142820141 1.34854924758
2881 1 29.0620667523 8.6106767859 3.12457876984
3054 1 28.3642628853 10.2550408508 0.918440627897
3050 1 29.0102321361 11.0797772852 3.12471920097
4206 1 32.7947801046 8.55674678331 1.77799186869
4375 1 32.7771512829 11.037694289 1.77489362861
3070 1 31.2822759953 10.2272540161 3.55346999869
4380 1 34.2662044292 11.840943363 0.00343213391115
4396 1 35.0271878068 10.187098427 2.19980307187
4204 1 37.2745584274 9.33252995865 2.63660315904
4210 1 36.5237751534 8.52069159601 0.438024050162
4379 1 36.5318403318 10.9949365734 0.41596445107
4398 1 38.7853536517 10.1558076581 0.864352559738
4395 1 37.2336760179 11.820688889 2.62125693293
4225 1 39.5316467876 8.47479276542 3.0834422263
4394 1 39.4187770401 10.9525978721 3.09840893603
4208 1 41.0098318307 9.28553903461 1.35466782533
4224 1 41.5963539521 10.0235175487 3.59748937458
542 1 40.9513163877 11.7777887204 1.3677892543
522 2 1.90377269519 15.2126539637 0.980077811078
4376 1 2.862574862 15.3253731962 3.36531426816
170 1 0.689529351235 13.4636736942 2.09188888252
338 1 3.04958273309 12.8453472616 3.6450834959
343 1 7.58652055976 11.921196195 3.08307163666
341 1 3.93104337018 11.9753313923 1.60208672044
530 1 4.0734554366 14.401315695 1.60158833264
340 1 5.37148030038 13.5799090472 3.48919355098
344 1 6.16761718161 12.7737696991 1.29414082676
513 1 6.23649362203 15.2689964212 1.28243687022
532 1 7.65038824333 14.4115099865 3.07641773051
1683 1 10.6614438807 11.9417788549 0.424139432274
337 1 8.42757969766 13.5902421856 0.865395018625
346 1 9.89973318152 12.7567387753 2.62774229697
515 1 9.93251170598 15.2368205 2.61276798166
1868 1 10.6974572132 14.4179969937 0.421292101683
1685 1 14.3889814682 11.9811787233 1.75336712011
1682 1 12.1837794005 13.6040172447 2.18602633015
1874 1 14.4542568636 14.4760300557 1.71221354762
1684 1 15.8046774224 13.7117058967 3.52557539078
1857 1 16.7475852786 15.3666694908 1.31351300627
1833 1 16.4937948838 12.8934604403 1.32090233983
1855 1 18.1690304189 14.3144479516 3.24821224771
1849 2 18.5536886067 13.8489893309 1.03228435408
3037 1 22.335769842 14.81007328 1.86425345692
1681 1 20.8846440496 15.2865240418 3.59005849428
3030 1 20.4345421972 13.0029586319 2.65973054401
2016 1 22.0514533655 13.0672038129 0.194041184825
3051 1 26.7486872413 11.9560372745 2.68392385
3028 1 26.7946060659 14.4038792723 2.68115256731
3029 1 24.3646857023 12.9429823112 2.12356377602
3034 1 26.0923598023 13.6263168489 0.455036942729
3220 1 24.6261093666 15.3657582638 2.27100396846
3025 1 23.9678769907 14.6553889071 0.0410095438663
3053 1 30.5359098293 11.8877915883 1.36129472797
3032 1 30.5294523574 14.3783854176 1.40016136837
3033 1 28.267281712 12.7199793236 0.960953183419
3222 1 28.2779589265 15.233512205 0.919440787225
3049 1 29.03160808 13.5510085328 3.14430686557
4374 1 32.7620549741 13.5005327346 1.77010532586
3048 1 31.2817391026 12.7017581284 3.55103397368
3238 1 31.2751798391 15.1754631053 3.55881936656
4564 1 34.9711153276 15.131240575 2.16991935842
4373 1 35.0037775566 12.6611996012 2.19487646782
4372 1 37.2153430324 14.2873453713 2.5746581876
4378 1 36.4984796928 13.4621285305 0.400646249814
4566 1 38.7880986715 15.0922072183 0.796806969237
4377 1 38.7664181572 12.6316761491 0.822039034228
339 1 41.0443499901 14.2231368141 1.32599882199
4393 1 39.4310670058 13.4350642961 3.04625647251
4392 1 41.5988367082 12.5558603015 3.57543432782
349 1 41.567649757 14.9758823837 3.56553415251
523 1 0.394965235801 15.981388283 2.30039133561
4703 1 2.09712009269 17.6041035708 1.90625550074
4694 2 0.0623246967973 18.5061253297 1.85864791957
529 1 5.55434184194 16.0065664842 3.63943878201
509 2 4.29234555343 16.8613047019 2.0968167936
698 1 3.93045875296 19.274147541 1.57853394405
508 1 5.45251650027 18.560253242 3.48710710039
512 1 6.21805786143 17.7376961801 1.25523217253
700 1 7.66584881533 19.371524062 3.01525376709
511 1 7.75796601272 16.893961765 3.0454693011
516 1 8.45634790331 16.07447441 0.835862606963
505 1 8.45703387322 18.5444568242 0.834217900912
514 1 9.96538932693 17.7282988869 2.59033767734
1851 1 10.7105700539 16.8985502769 0.404764385006
2036 1 10.6949105387 19.3784757704 0.402483317435
1850 1 12.2007043514 18.5680940441 2.15577879217
1853 1 14.4689739765 16.9429305661 1.7079030748
1867 1 12.2036107413 16.0831353109 2.1638021585
2042 1 14.4429543777 19.4095591277 1.70601212813
1852 1 15.9462168293 18.6167059708 3.4277104706
1873 1 15.9620632729 16.165005111 3.46586337479
1856 1 16.7618165852 17.7542220915 1.32003897101
2044 1 18.3702098207 16.8182483121 3.20147308225
2023 1 18.278622929 19.3254830531 2.9545764728
2184 2 18.601100801 19.0041573608 0.413736523611
3198 2 22.4546213672 18.5609396809 2.15468914675
3026 2 20.3470380131 16.4379879418 1.4576498144
3209 1 20.7552326861 17.8551444536 3.53956685591
2027 1 22.3586036982 19.750079933 0.320174540641
3204 1 23.6664638653 17.2268032444 0.246430646468
3203 1 26.0310575828 16.0756317327 0.452679019705
3196 1 26.7907533077 19.3324992705 2.72870041448
3197 1 24.6507174765 17.7674851179 2.39861263377
3202 2 25.9419988502 18.3532154479 0.5532866388
3219 1 26.8292099203 16.8737529769 2.68540154065
3218 1 29.0443424043 16.0284370558 3.1177846213
3200 1 30.5105548822 19.3134476214 1.30634566473
3201 1 28.2422086149 17.7022223686 0.884494434983
3217 1 29.0203646221 18.5132430022 3.09078690508
3221 1 30.4732078401 16.8430989991 1.32155350928
4543 1 32.7180433134 15.9808700637 1.75052406165
4542 1 32.7236055514 18.4528165445 1.73435360011
3216 1 31.2501529642 17.6439386174 3.52393515577
4541 1 34.9604289403 17.6000673946 2.16590215364
4547 1 36.4790089595 15.9258623452 0.415693600994
4540 1 37.168853436 19.234239458 2.59639060883
4546 1 36.4913823722 18.4125438699 0.39278191403
4563 1 37.2055662705 16.7605131562 2.5723734391
4545 1 38.8010166574 17.5667771245 0.812886655603
4562 1 39.4343681376 15.9166935813 2.97159400558
4544 1 40.688837407 19.2414288128 1.36017103274
4565 1 41.0583281652 16.7121376293 1.24506342868
4561 1 39.3619403315 18.355791938 3.09709292218
4560 1 41.6083260377 17.5749032681 3.61300828683
4750 1 1.57078401075 20.4559603676 1.99452628992
860 2 0.564647094849 21.6473482267 0.218839883311
677 1 3.91235258216 21.7853166906 1.69199360874
680 1 6.1764732953 22.6521982649 1.26080302347
681 1 6.20498924186 20.1750876938 1.20948061592
697 1 5.50198373322 21.0429030798 3.40145251361
676 1 5.4045327024 23.506789718 3.45857566495
679 1 7.71016406241 21.8536766992 2.99738128109
682 1 9.94409009692 22.7020322884 2.58290039558
683 1 9.92752634636 20.207918917 2.59034885836
684 1 8.44903801471 21.0206289598 0.81118992636
673 1 8.436372739 23.4985122878 0.82656621339
2019 1 10.686746843 21.8595213312 0.394440038247
2021 1 14.4118196735 21.8883094071 1.74796230368
2035 1 12.1726326199 21.0514599162 2.16144511359
2018 1 12.186719812 23.5521895521 2.16217203614
2025 1 16.6618023845 20.2523259975 1.26643081141
2024 1 16.6753285177 22.7358767532 1.42033518142
2041 1 15.9518797018 21.0723247834 3.46841563991
1854 1 18.2534059337 21.7838019189 3.11924750371
2020 1 15.9378010007 23.5771977712 3.5303694885
2212 1 18.8287183217 21.2301634118 0.828976316885
2017 1 18.9353178457 23.5803657269 0.876021053099
1858 1 20.4043899151 20.0042822966 1.94729994476
3367 1 22.394568624 21.1190253175 2.4018899525
2043 1 20.4415500352 22.5122854261 2.54658184897
3373 1 21.1485502782 21.8346678413 0.322464210761
3363 1 22.5006070909 23.7191136747 1.97718261095
3388 1 24.5596054043 20.1547642639 2.09613060059
3365 1 24.4328034683 22.6659818384 2.57174101194
3371 2 25.5682453732 21.7401346339 0.64849637255
3387 1 26.7054275111 21.8606612958 2.73539084163
3362 1 23.4250761367 22.2441803455 0.225957279036
3390 2 28.4071654711 20.1400791186 0.967669291307
3369 1 28.0378221734 22.6302048099 0.813388735397
3389 1 30.3866874536 21.8084929495 1.28701224363
3386 1 28.9516742836 20.9902096205 3.09375425775
3385 1 28.9293978537 23.433283641 3.02542622765
4711 1 32.6663582151 20.9394704631 1.72535530262
4710 1 32.6954613482 23.4043353649 1.72601471534
3384 1 31.2055134607 22.5788416944 3.48694286206
3406 1 31.2158997069 20.1225443133 3.52571904651
4732 1 34.9317573624 20.0851787765 2.15960914476
4709 1 34.9498380775 22.5524479777 2.16279358675
4715 1 36.4190817778 20.9071094669 0.36913487188
4714 1 36.4501280682 23.3768370759 0.399097658448
4731 1 37.1888852715 21.698878925 2.57459021954
4713 1 38.6913121739 22.5322931904 0.869126045239
4734 1 38.5960675138 20.0341206865 0.781479096396
4733 1 39.4475900259 20.8211535201 2.8853914843
4729 1 39.6931790295 23.2974276605 3.00439631724
675 1 40.936904865 21.7019165928 1.02102521061
4918 1 42.4953160174 22.8535509465 2.29303109636
703 1 41.6960973637 20.1475040209 3.41672811294
691 2 2.01849872784 23.8095238879 1.8866840393
878 1 0.558678465315 25.5231753535 1.83721084589
1003 1 2.18403123068 27.3974977425 0.0598609455131
845 1 3.9664049302 26.9009282085 1.65233749337
866 1 4.12412182268 24.3401578162 1.61012881602
849 1 6.27459196449 25.1433648245 1.26832614284
865 1 5.40617792205 26.0340673476 3.43955686334
848 1 6.33590652532 27.5284170576 1.25522574825
868 1 7.68757238843 24.3372972469 3.03010337875
847 1 7.74693861175 26.8240844835 3.01805368778
851 1 9.94909341151 25.1980831359 2.6020233145
852 1 8.50105810966 25.9839492681 0.823750225349
2204 1 10.6780788294 24.3459211764 0.411855882876
2187 1 10.7234805608 26.8308079572 0.414283283027
850 1 10.0058013583 27.6806608354 2.57830342722
2189 1 14.4515466022 26.8841579398 1.77605205144
2203 1 12.1862689759 26.0244577939 2.18676596836
2210 1 14.4475697915 24.3847383268 1.76576205623
2348 1 12.9111383326 25.1528286131 0.0136077240067
2347 1 12.9773001494 27.614495291 0.00627109345083
2022 1 18.2388916753 24.3060921638 3.10693339967
2193 1 16.7314203768 25.2360057297 1.38502777656
2209 1 15.9301332803 26.106104044 3.48888739356
2352 1 18.9401823618 25.967990812 0.866024526461
2195 1 18.3433451415 26.9138768613 3.16660420135
3530 1 21.1532926142 24.243792052 0.229388819017
3541 1 20.4869936493 24.9428980751 2.68847037772
3534 1 22.445690477 26.1914101613 1.71244348199
2211 2 20.4952609664 27.1979506855 2.02454220327
3370 1 25.6395988634 23.9214761193 0.515229267801
3364 1 26.7198508858 24.3765602695 2.71944359063
3539 1 25.9540661479 26.2044976626 0.404661052795
3555 1 26.8389969795 26.8473938167 2.59780798853
3556 1 24.5140312844 25.2534537855 2.20921377406
3540 1 23.7928447254 27.2534352193 0.00419839312081
3368 1 30.4253854532 24.2570027538 1.28048288426
3554 1 29.0238498493 25.8988585594 3.04591366305
3557 1 30.5372461911 26.730461802 1.29191366455
3558 1 28.1439268706 25.0863808723 0.821696259943
3537 1 28.3266252938 27.6100820615 0.835138965268
4879 1 32.7625787668 25.8419590792 1.73662687983
3552 1 31.298871385 27.5044639209 3.50967165424
3574 1 31.2586527572 25.0333170335 3.48815218778
4884 1 34.2585023584 26.7027118164 0.00280852154192
4877 1 35.0374728182 27.4813349333 2.17570499425
4900 1 35.0158743529 25.0093415873 2.17276617991
4708 1 37.2975361009 24.1413645807 2.62862464583
4883 1 36.4745095567 25.8415720186 0.395306623389
4899 1 37.2472357183 26.6364016037 2.61405591636
4881 1 38.6953266234 27.5071693978 0.877085410737
4902 1 38.6945752931 25.0223746291 0.874983738421
4712 1 40.9539148179 24.4678883024 1.29204558203
4901 1 40.9587411072 26.8857568798 1.36567765127
4898 1 39.4916768684 25.8324123115 3.08799628259
859 1 41.6176091748 27.4438750695 3.57708079016
674 1 41.6842760627 25.0241475774 3.61577311168
1027 1 0.368056994253 27.8609007359 1.76235184921
5207 2 0.584682903652 30.0118254891 1.97936839695
1034 2 3.47609847244 29.3931957167 0.855123506229
1028 1 1.3342107566 31.4105196505 3.47735953892
1026 1 3.53359584843 29.9175460228 3.3575278586
844 2 5.73430385826 28.5996489887 3.30319280309
1017 1 6.02802416398 30.0305904222 1.25357719297
1033 1 5.54788850138 31.0472299685 3.44301517328
1036 1 7.7819377654 29.3235302479 2.94863202745
841 1 8.5041917728 28.444670406 0.800512222998
1019 2 9.81690470924 30.2246462328 2.51614189916
1020 1 8.33132993612 30.8984323322 0.753273777978
2372 1 10.6794676889 29.288892387 0.399999762278
2186 2 12.3626008523 28.4925391003 2.01712999135
2371 1 12.1342163733 30.9467232129 2.09794889533
2378 1 14.5382059027 29.3744367682 1.75164943939
2192 1 16.7264585286 27.7336627058 1.44364624202
2188 1 15.9766747604 28.6602237533 3.55295298309
2377 1 15.9432465657 31.2749136494 3.05956630151
2360 1 16.7071132027 30.2032233568 1.06369330101
2361 1 18.2626010107 29.7825411478 2.77569731073
2191 1 18.9817410475 28.4450389653 0.906986948499
2194 1 19.1241547775 30.8034213427 0.754033637111
2363 1 21.0210898206 30.9529715946 2.72817026277
3531 1 21.6033922491 29.0737620151 1.26305192124
2379 1 20.35427188 28.8596846163 3.59576044239
2342 1 21.5489867709 31.2947281247 0.0886141247722
3533 1 24.5889249759 27.8409659719 2.1041753308
3532 1 26.8990935217 29.298321144 2.6525276781
3538 1 26.1421117027 28.6164409798 0.432199008922
3707 1 26.1018379861 31.0532785923 0.450215681958
3724 2 24.8023762236 30.2176741999 2.4077644173
3529 1 23.9653106268 29.6963665094 0.287236917048
3536 1 30.6001239421 29.2068884283 1.2793134571
3553 1 29.1044256896 28.3959752928 3.04414655202
3722 1 29.1145057726 30.8873554562 3.05508221637
3726 1 28.365378249 30.1016933402 0.883065226827
4878 2 32.8240557498 28.25811546 1.83824296377
5047 1 32.7779974065 30.7902157683 1.69981915106
3742 1 31.3379292823 29.9884768124 3.47468477592
5068 1 35.0126998806 29.9500468778 2.15106378634
4876 1 37.2482929772 29.1233786272 2.58825976002
4882 1 36.4857429232 28.3254737979 0.392559564754
5051 1 36.5169763852 30.7863595434 0.396591996352
5070 1 38.724830058 29.9627341223 0.790973681101
5067 1 37.2770277562 31.5793738297 2.59882793727
4880 1 40.9546086832 29.473577889 1.40486073262
4897 1 39.4700587298 28.2830803708 3.01646894975
5066 2 39.4010920454 30.5858168782 3.1532439249
5086 1 41.7713393838 30.0050465612 3.61125480681
5048 1 1.73420325164 33.4688516753 1.99903965172
1013 1 3.85175935175 31.717236342 1.71832398106
1015 1 7.71118991865 31.7973759205 2.93199553208
1202 1 4.00197263649 34.159441572 1.61724931045
1016 1 6.1178309437 32.5128076884 1.18273693763
1185 1 6.20285886563 35.0118402912 1.17210000432
1025 1 5.45954399777 33.417357097 3.38185449828
1204 1 7.70045713704 34.2312013868 2.93598673974
2355 1 10.636949047 31.7283439586 0.31649527789
1009 1 8.40376815976 33.3761965681 0.744469128458
1018 1 9.93123719524 32.6144999635 2.49679703835
1187 1 9.94409541011 35.0525945549 2.49020076893
2540 1 10.6657084877 34.2044845434 0.292673958299
2357 1 14.3304685825 31.8361811033 1.54176894781
2354 1 12.1582358613 33.3995832085 2.03392505445
2546 1 14.3436845883 34.3125066531 1.55952136279
2358 1 18.3333284598 32.2353357309 2.85457484685
2527 1 17.8772523595 34.7564522666 3.28238512752
2688 1 16.742041868 32.7024218064 1.13353791616
2356 1 15.8043165396 33.6172804861 3.27846548673
2529 1 16.5570290249 35.1091838564 1.18349042444
2673 1 18.8071669169 34.4725794979 0.952325157463
2362 2 20.2938254739 32.7131947072 1.52535907901
2682 1 22.4524301168 33.2707495208 1.97217254261
2531 1 21.1727310372 34.3455466001 0.263433248368
2532 1 20.5354706456 34.9315097883 2.73753363152
3723 1 26.8803285519 31.7825936503 2.64203503707
3700 1 26.7937265025 34.2489775127 2.63414650064
3701 1 24.6950596599 32.7041462763 2.26681295898
3706 1 26.0150516141 33.4588294398 0.362581781797
3892 1 24.5166910582 35.1404935924 2.27390276098
3709 2 23.8464271001 32.1179959763 0.0898160903822
3697 1 23.7886569089 34.5020390683 0.0304270584212
3725 1 30.5584419288 31.6622635417 1.26657739609
3704 2 30.5526435779 34.1434401623 1.30290672048
3705 1 28.300854013 32.5660804802 0.842286516528
3721 1 29.0519156151 33.3599399489 3.06196195138
3894 1 28.3000169594 35.0232652499 0.877637572394
5046 1 32.7937537035 33.2492736401 1.7302084712
3910 1 31.294972757 34.940932804 3.51260420504
3720 1 31.2987723598 32.4618643825 3.47649023582
5045 1 35.0265119508 32.4085760907 2.16125918672
5236 1 35.096977712 34.8707776632 2.18004605536
5044 1 37.4154196757 34.0248105757 2.60433609413
5050 1 36.5051640986 33.2663002754 0.407613799018
5049 2 38.5685856495 32.4704847602 0.791858888469
5238 1 38.8489617081 34.9261135914 0.806479105196
1010 1 42.2491287236 32.2919353949 1.97749556997
5065 1 39.7464154146 33.1188232627 2.93016826959
5237 2 41.0316749901 34.3739019327 1.10043997117
5254 1 42.2960160043 34.6477298085 2.88008285663
5375 1 0.318895986209 35.6251747835 0.648843325812
1178 2 1.99207817285 35.8107659695 2.0702637793
20 1 0.938794822018 37.9673866225 1.86383070486
1193 1 3.06554957407 37.515219737 3.64399205329
26 1 3.80451994298 39.0541689078 1.63216331178
1181 1 4.03663779425 36.6210506144 1.55902281077
1201 1 5.47939915026 35.864722811 3.36982977624
1184 1 6.19230853854 37.5113759997 1.12057058567
1180 1 5.43736118042 38.3089188538 3.30914318936
1183 1 7.69934997104 36.6948001771 2.91646314633
28 1 7.73234748407 39.1439889706 2.95189037948
1188 1 8.43832108211 35.856691585 0.72185770338
1177 1 8.43486551616 38.3305329054 0.712527214273
1186 1 9.94422946453 37.5141493905 2.49200468165
2523 1 10.6828165256 36.6788574798 0.311073545098
1364 1 10.6994682114 39.1275350378 0.342962050791
1370 2 14.2364512394 39.3166118361 1.50280397102
2539 1 12.1892893582 35.8748337395 2.05409888967
2522 1 12.1884660297 38.3331886143 2.10384519623
2525 1 14.3921175368 36.7909759995 1.63913646419
1351 2 18.4636260423 39.1344685153 2.74532802505
1372 1 18.3807870172 36.7174308343 2.08256379212
2524 1 15.9053896353 38.5097655891 3.36420643194
2528 2 16.5005164454 37.4187427473 0.971074303127
2545 1 15.9482812056 36.0912313308 3.39565483692
2716 1 19.4983618397 38.8596440226 0.505262729373
3702 1 22.3853743238 36.001879226 1.74348169079
2521 1 20.1012486298 36.481746084 0.52358744609
2530 1 20.5355028274 37.5128980837 2.79828963819
3865 1 21.9335817735 38.3058707672 0.891250519461
3870 1 22.4512847479 38.8863577327 3.54265322453
3875 1 26.064976802 35.8937139502 0.515572799037
3869 1 24.355619683 37.6573777692 2.2892070885
3874 1 26.0693635686 38.3572442472 0.509205865401
3891 1 26.746834684 36.7524865326 2.67089789151
3885 1 26.7799644502 39.1905541448 2.70577527108
4015 1 24.0327573783 36.9744994458 0.0505257455429
2700 2 23.9361368975 39.4245797402 0.164435152469
3890 1 29.0178711705 35.8316009076 3.09348893093
3872 1 30.5606011839 39.0651366443 1.34398666509
3873 1 28.301340012 37.476543012 0.907655585782
3889 1 29.0307458725 38.2769411035 3.12467557857
3893 1 30.5532213945 36.6113317704 1.33302983795
5215 1 32.8078249679 35.7217232658 1.7576593011
5214 1 32.8232624647 38.1982421909 1.75992951995
3888 1 31.3077173703 37.399262912 3.52673216571
5220 1 34.3082378985 36.5359653058 0.0137381852757
5213 1 35.0983293971 37.348074659 2.19059994352
5219 1 36.5848338195 35.7248732836 0.435695103886
5212 1 37.299923473 38.9684850388 2.5769240371
5218 1 36.5906424507 38.179086292 0.425020170687
5235 1 37.3761870839 36.4927435822 2.64984844985
5217 1 38.840237933 37.3774954239 0.865057258407
5234 1 39.6522137908 35.617064324 3.05021693892
4078 1 41.1079244234 39.0210326062 1.66820891106
5233 1 39.4513142807 38.0851342233 3.11715984878
1179 1 41.0649660898 36.6798257199 1.35944659264
5232 1 41.7715146689 37.4139130692 3.52847739567
186 1 3.26796298366 2.84604357683 3.72177981923
18 1 3.23322233064 0.45690220193 3.77418795894
14 1 1.12832150886 2.39716173787 4.37942999434
37 1 2.36444738697 1.09540613484 5.96965538751
13 1 2.42768051695 3.82696299886 5.8379175074
16 1 4.6396156149 2.01920506362 5.56162703733
23 1 6.93336682981 2.88138478505 5.16521653719
24 1 6.96702026143 0.407725190077 5.1426779391
42 1 6.11889833975 1.20621619713 7.31675367235
15 1 6.06881454287 3.63620334664 7.38953745475
22 1 8.39462579851 2.04822487893 6.92037256488
27 1 9.24173857189 1.23398578672 4.74391254511
1375 1 10.6561613843 2.87984197367 6.49468597816
1376 1 10.7071123687 0.411549962782 6.50786548257
6 1 9.24095968207 3.70022434705 4.74805315744
1358 1 11.5400910742 2.04488319804 4.35205117289
1361 1 13.8098853535 2.87043552042 3.99366383324
1362 1 13.7864845467 0.365872456329 3.91479891411
1360 1 15.2285349353 2.0159268436 5.80425890009
1381 1 12.9848879047 1.19202684481 6.10370614447
1357 1 12.9454629112 3.68174353767 6.12575907505
1368 2 18.8910699347 1.43010206465 5.43495720368
1359 1 17.4179809269 3.12869665502 6.03048735499
1367 1 19.7673009936 3.72316264137 4.85505572446
1371 1 21.2473093363 1.7520151389 4.45442183432
2526 1 21.1355184099 1.18162402245 6.69989449393
2711 2 22.9301293201 0.185827506112 5.56231756435
2726 1 21.7292528096 3.52656066353 6.15543883705
2691 1 22.6445089785 3.91339265114 3.93914822668
2695 2 25.4881900442 1.42142093564 4.28608594758
2730 1 26.1495953852 1.98231751497 6.64381474932
2731 1 23.827641205 2.48149331014 6.00327711447
2704 1 25.3235575538 3.71714370864 4.4861479411
2733 1 27.5872186957 0.379279497131 4.88623290639
2708 1 27.5931600872 2.83926714661 4.87889949618
2732 1 29.8297438268 1.96825955201 5.32291762635
2729 1 28.3553267551 1.12320550512 7.09238757129
2728 1 28.3443661072 3.59611181989 7.09736741994
4055 1 33.546777147 1.93336143388 3.96008664326
4048 1 34.321523144 2.70880178142 6.17291536339
4050 1 32.0933595866 1.11499882901 5.75253136092
4075 1 34.3367418794 0.214498420823 6.15429289333
4049 1 32.0796119866 3.58737228186 5.75768535641
4052 1 38.0256487626 2.70794051524 4.81285502817
4053 1 35.8011302793 3.54288297993 4.40515133796
4054 1 35.7465934646 1.06907421258 4.35449673682
4074 1 36.5494500757 1.80524863815 6.54376695379
4077 2 37.8138033658 0.209670178064 4.66899363359
4073 1 38.777863858 0.998814099167 6.93911970991
4072 1 38.8278818694 3.5004466163 6.99936660384
32 1 42.3470394936 1.16611902315 5.634452779
4076 2 40.1692041887 2.03820144951 5.34933071923
31 2 42.7218424191 3.93277783739 6.08688826909
5247 1 41.0087122518 0.277677180987 7.37727367598
206 1 0.991868094084 5.19243010405 4.18137358784
224 1 2.61215428922 6.38828797436 5.80340446119
200 1 0.24277095703 6.4342865345 6.52757745057
211 1 4.72771959783 4.44314254929 5.5581143539
184 2 4.89606062819 6.75948066087 5.71134875418
192 1 7.00377001925 5.32562139801 5.21029398156
191 1 6.96170576268 7.79385884605 5.15135204047
190 1 8.469142908 7.00557423482 6.93161297974
195 1 9.26783374057 6.16445028318 4.77527229591
213 1 8.42430835364 4.51334573811 6.94124240078
1526 1 11.5391757954 6.99670587398 4.33782271762
1544 1 10.7341942656 5.34642152107 6.52143009051
1543 1 10.6711068649 7.82798963877 6.5040822347
1550 1 11.5362504922 4.522990707 4.33178169878
1530 1 13.8010089871 5.34181404838 3.91696723273
1549 1 13.0205421067 6.13898831828 6.10324018222
1555 2 15.1894591726 4.48792968589 5.74855631188
1528 1 15.3528202962 6.91702063081 5.80966094792
1529 1 13.8007682205 7.80398920844 3.89106938887
1536 1 17.4417822416 5.38123621802 5.19038979735