ITEM: TIMESTEP
14000
ITEM: NUMBER OF ATOMS
5376
ITEM: BOX BOUNDS pp pp pp
0.0 42.7297273569
0.0 39.5600404449
0.0 37.0050293879
ITEM: ATOMS id type x y z
163 2 2.12973208203 2.75452580001 1.40223854888
38 1 0.147560692696 0.978411985123 1.2285464137
17 1 0.13588348959 3.6328092142 2.09667226069
5216 1 2.2110088831 0.241609824291 1.72926215038
186 1 3.37996168905 2.92140789576 3.63770517136
5 1 4.25193673393 1.89398064025 1.4884384995
8 1 6.43577513171 2.81190220416 1.22199850754
9 1 6.49850745919 0.356410407537 1.17088303214
25 1 5.62919663709 1.19462463321 3.35510321451
4 1 5.62354652187 3.65432724838 3.37302735833
7 1 7.89095149382 2.0009658002 2.98008667654
10 1 10.1453796805 2.84041420606 2.5707854434
11 1 10.1214218801 0.352949683857 2.56650886752
12 1 8.70605761933 1.17691894059 0.794504932051
1347 1 10.9376068079 2.01457320484 0.371858874472
1 1 8.6570738006 3.65414822597 0.795813621712
1349 1 14.5825998917 2.07368644307 1.79128345115
1363 1 12.3536078479 1.19575840148 2.16807678119
1346 1 12.4125382228 3.67782935233 2.1637781549
1352 1 16.7643110024 2.80227757912 1.41099677864
1353 1 16.705697621 0.414135759137 1.22736407977
1540 1 18.2359052436 1.8083218237 3.41342418289
1356 1 18.9458674632 1.42224645262 0.965141707266
1369 1 16.0501766061 0.829052820281 3.52739427562
1519 1 18.6738697188 3.8624866975 2.28654303933
1348 1 16.3019177153 3.57590409713 3.6589194771
2710 1 22.1824038992 1.2064504863 1.49449753944
2863 1 20.8240179458 3.03321819934 2.58021866127
1355 1 20.413968631 0.709782674665 3.29316457319
1513 2 20.4349965465 2.98522356995 0.267514373857
1354 2 22.5960501132 1.68208675285 3.66133224629
2694 1 24.4606585861 2.91054778791 2.26570419707
2699 1 26.0436214201 1.25461004299 0.40095838627
2698 1 26.0423044455 3.70228716278 0.434213463783
3868 1 26.8835622462 2.14066531395 2.49209022766
2709 1 24.4581911213 0.446076988672 2.14142626695
2697 1 28.3384613962 2.89480078964 0.790032280481
2714 1 29.1039154212 1.20273499966 3.03287915488
2717 1 30.5649336265 2.0280789998 1.26707057262
2718 1 28.2944454461 0.415932267978 0.845143077115
2713 1 29.0555754403 3.6797982779 3.0320607011
4039 1 32.7879093953 1.17490561602 1.72833526051
4038 1 32.7952014422 3.65164420559 1.73632077603
2734 1 31.2919940602 0.33903243961 3.50192883021
2712 1 31.2881893341 2.82570027705 3.49644786395
4060 1 35.0100262336 0.3496617949 2.17169156709
4037 1 35.0352138887 2.81934130082 2.18656631992
4043 1 36.5707764082 1.16325749049 0.427361955032
4059 1 37.2762652925 1.9965937687 2.63956475591
4042 1 36.5302246368 3.64307729124 0.420926928242
4041 1 38.7284044114 2.82752734359 0.857715355092
4062 1 38.8394410906 0.375179951996 0.926614960853
4058 1 39.4914401454 1.15454455397 3.17172081849
4057 2 39.3793081325 3.73506208955 3.02041949672
4056 2 41.9190568415 1.5505864933 3.16889170245
4196 1 40.8668506298 2.26348556576 1.35795933121
187 1 0.167300698606 6.19582409129 2.02403313982
193 1 2.09500206781 4.98378310834 1.8376189806
185 1 2.026004629 7.19807301495 3.09313058186
331 1 2.22216314494 6.63963219348 0.245992022189
194 1 4.24834814346 4.3805776805 1.53089947503
173 1 4.10404939611 6.85559654512 1.79058913957
177 1 6.42402836516 5.2777546317 1.2320946704
172 1 5.70922976027 6.08805390473 3.39721915253
176 1 6.31380266007 7.69697243067 1.25588091957
175 2 7.96999910953 6.8396858586 2.95791074236
196 1 7.87798593911 4.44042285704 2.99217782805
179 1 10.1301762617 5.31239432084 2.57566909921
180 1 8.62407829226 6.11283847508 0.768808614776
1532 1 10.8880276338 4.49845972384 0.386999486074
1515 1 10.8568094305 6.96892536537 0.402389947838
178 1 10.0567952429 7.78921503275 2.59613201978
1517 1 14.7034619188 7.09234672104 1.77970186001
1531 1 12.3943344959 6.17417750464 2.18471644515
1538 1 14.6840588981 4.54793189674 1.76216843598
1675 1 13.105987958 7.84011455665 0.00657162547911
1676 1 13.1209336682 5.36673950084 0.00880732977994
1521 1 16.9043851316 5.29430892157 1.46980360075
1839 1 18.8352446398 6.13262669891 3.2198504765
1520 2 17.3740537264 7.5816305098 2.44457503725
1537 1 16.0315793567 6.10926462938 3.63775396295
2689 2 22.5504793381 4.58561973764 1.90320037669
1524 1 20.3193766909 5.25931001886 1.40461691191
2868 1 22.2856313683 7.01673082381 1.68457831622
2879 1 20.9259147647 7.69866294755 3.69926576861
2692 1 26.8238175065 4.59017872733 2.58952427552
2867 1 26.0666482093 6.17456329715 0.467246403273
2883 1 26.7715017058 7.03666296107 2.68413270784
2884 1 24.6016698269 5.45313746866 2.27447007815
2715 1 23.8586603414 4.50592094801 0.0651967253812
2696 1 30.5571077505 4.49904446504 1.28746921568
2882 1 29.0276539211 6.15454822284 3.08792797465
2885 1 30.5349441085 6.97440590276 1.33426011893
2886 1 28.3158022692 5.35463197489 0.845982989774
2865 1 28.2723406121 7.82058849065 0.922309032405
4207 1 32.7805016953 6.13045261094 1.75536914763
2880 1 31.2872592246 7.77762618997 3.53811350147
2902 1 31.2797154331 5.30297192613 3.51340969518
4228 1 35.0152395294 5.30280304705 2.18884609373
4205 1 35.0109226435 7.78255234309 2.18513416373
4036 1 37.2200840726 4.47864382819 2.63514501859
4211 1 36.514202856 6.12615074135 0.410318591
4227 1 37.2294959062 6.95651567569 2.62173999119
4209 1 38.6973387748 7.79100852939 0.804764023216
4230 1 38.7152704789 5.32137909946 0.853041219916
4061 1 40.8969572462 4.63263134375 1.3182402754
4226 1 39.4349079572 6.13502867451 3.08946095742
4397 1 40.8650953569 7.01082386499 1.36263969688
4246 1 41.5608667542 5.25136471087 3.66677768104
4229 1 0.524846384253 8.51544554247 1.55597475188
355 2 2.74958460651 8.72337503735 1.04695326309
500 2 2.88129020628 10.7619107662 3.32650022303
361 2 5.35771069357 8.51283347033 3.32214438486
345 1 6.14122393967 10.1489881821 1.41311126562
364 1 7.68390398107 9.35210380854 3.06319597431
343 1 7.61483414779 11.811056221 3.11012998746
353 1 5.34901588574 10.9489423613 3.66545463984
169 1 8.48791584637 8.5775561927 0.873677443183
347 1 9.92257113156 10.2403899646 2.6251890231
348 1 8.40104469688 11.0255626732 0.898359180502
1700 1 10.7130148741 9.42524674276 0.432715583787
1514 1 12.2560775447 8.62798543856 2.20006754272
1699 1 12.1294404347 11.124609904 2.18745717366
1706 1 14.3653973834 9.57352941529 1.74049684268
1689 1 16.4960792388 10.5081474569 1.32778418687
1705 1 16.089422355 11.3394837158 3.49334167991
1708 1 18.1401955588 9.69893293263 2.95795728408
1516 1 15.8472805136 8.85252139474 3.51671752521
1848 1 17.7725576425 8.70265300939 0.336546012839
1842 1 19.9248972952 8.19611354329 1.60509217754
2862 1 22.4439678803 9.38835608209 2.20140900209
1692 1 20.4235889234 10.4393293574 2.77049415308
2010 1 21.4170222843 10.2208688882 0.281878212316
2861 1 24.5172287301 7.91716244554 2.30676948254
2860 1 26.7788323799 9.48194422852 2.70791750065
2866 1 26.006058847 8.66293888763 0.533094543808
3035 1 26.0659644652 11.1181842672 0.462699486094
3052 2 24.6060145069 10.4155859465 2.10246528559
2864 1 30.5267195272 9.44910828609 1.35070324825
2881 1 29.0397955287 8.62697462583 3.11279626688
3054 1 28.2820400676 10.275271129 0.931520287825
3050 1 29.0083571661 11.0898844932 3.13795007425
4206 1 32.7693916434 8.60465335355 1.76825437108
4375 1 32.7428060017 11.0773989601 1.77558976414
3070 1 31.272135952 10.2510523933 3.55524677665
4396 1 35.0037445384 10.2595536468 2.18181767767
4204 1 37.2347789318 9.44800068295 2.58785692325
4210 1 36.4933854053 8.6102130055 0.396751165625
4379 1 36.5105442481 11.0877535767 0.408437417544
4398 1 38.7630174866 10.2896379636 0.817425753157
4225 1 39.3417742737 8.51921569173 3.00808245927
4394 1 39.7540081472 10.9573861253 2.98878242952
4208 1 40.8714050811 9.3733477514 1.238131819
374 2 42.3863500445 10.4710839156 2.48319757145
4224 1 41.6542418512 8.16512506608 3.43736119397
499 2 2.30153196609 12.6729929183 0.508260328456
170 1 0.718622088484 13.7648653507 1.73711494463
530 1 3.84373084728 14.2648870603 1.81038876242
522 2 2.23208193761 15.8190195438 2.14366107796
341 1 4.08619520366 11.899587607 1.82263985497
340 1 5.3900648887 13.5254683167 3.56051684478
344 1 6.19622831506 12.6484282692 1.3523147619
513 1 6.11818000966 15.117675045 1.26469016374
532 1 7.64782378959 14.3087505523 3.05442122917
1683 1 10.6393292359 11.9002102407 0.40998395238
337 1 8.40781677522 13.5073651714 0.845901935007
346 1 9.88178748629 12.7139894223 2.60615780431
515 1 9.87719283193 15.2026539008 2.56373485352
1868 1 10.652794941 14.3829898048 0.380083328094
1685 1 14.3360212868 12.0188707423 1.7888018144
1682 1 12.135259402 13.5938016581 2.12988094716
1874 1 14.3920678733 14.486021784 1.71719655082
1688 1 18.555031111 11.8884499455 1.89918638912
1684 1 15.769388804 13.7614111592 3.55148898393
1857 1 16.6256801257 15.4071242745 1.28672959461
1833 1 16.4715819372 12.9376360366 1.34481990303
1855 1 18.2109545797 14.2981784235 3.37769025308
1849 2 18.4250835975 14.1331986 1.16903053206
3031 1 22.4623703587 11.9704748409 1.91681682206
3037 2 22.5439157761 14.6732772127 2.31898146436
1681 1 20.8035821365 15.4172524035 3.59385810362
3030 1 20.8673245541 12.9939978943 3.36352372012
3051 1 26.7348028964 11.9144965073 2.73523409051
3028 1 26.7685497784 14.3757259113 2.6982271017
3029 1 24.5757945007 12.9007762881 2.34639484936
3034 1 25.9717029706 13.5812316932 0.453456718132
3220 1 24.6505920533 15.3480538882 2.33251927997
3025 1 23.6677094232 14.1330456385 0.269137872656
3053 1 30.4868009588 11.9152739925 1.36185826987
3032 1 30.4778190372 14.3986544705 1.39247903847
3033 1 28.1956531684 12.7264822611 0.964450741723
3222 1 28.178548346 15.2150247666 0.905626235297
3049 1 29.0091212617 13.5550457637 3.14837095609
4374 1 32.7402461432 13.5381266481 1.77566387195
3048 1 31.2639367004 12.7238440312 3.5555113878
3238 1 31.2617830096 15.1967331637 3.56430378491
4380 1 34.233523018 11.9008867585 0.0227938394464
4564 1 34.9630019163 15.1866054279 2.20057180637
4373 1 35.0303235983 12.7194360559 2.20141355885
4395 1 37.3423653196 11.8854829233 2.5975189034
4372 1 37.2356008974 14.3683395511 2.6269994378
4378 1 36.5111241253 13.5442579987 0.421018619765
4377 1 38.8366503932 12.7180281321 0.773535760571
4566 1 38.7457172564 15.1768910835 0.826175709677
542 1 41.1960354649 11.9770281706 1.12328326666
339 1 41.0583302139 14.3141306069 1.22873576571
4393 1 39.4522244473 13.451893493 2.96889589359
349 1 41.6000521459 15.1114679103 3.41781458888
4392 1 41.6229917445 12.6937397653 3.4952738825
523 1 0.138925540336 16.1008349243 1.51806009467
4703 1 1.84024581325 17.9701685034 1.33661516504
521 1 3.23139919662 17.7363580257 3.5646461117
529 1 5.44866720618 15.9568923142 3.47893183014
509 1 4.14767431278 16.7529387122 1.5403746748
698 1 4.04568718481 19.185724342 1.41985790818
508 1 5.49676158786 18.4532700981 3.33769252697
512 1 6.28351474395 17.6109236617 1.17832774557
511 1 7.69493125465 16.7916913697 2.98724306996
700 1 7.69204635223 19.312220951 2.97087502396
516 1 8.40275677842 15.9809178919 0.793932769167
505 1 8.47408946907 18.4756153324 0.769105853752
514 1 9.91631519943 17.6738463125 2.55627846824
1851 1 10.679113395 16.8601500234 0.362552413505
2036 1 10.6891924904 19.3416438871 0.349432931179
1850 1 12.1470885034 18.53746696 2.12269843099
1853 1 14.4147161131 16.9308403742 1.68856785325
1867 1 12.1498231118 16.0723272717 2.13597129296
2042 1 14.3829560477 19.3814597239 1.66856622343
1852 1 15.8341030647 18.6262573004 3.47786309294
1873 1 15.9133535327 16.1719118816 3.48323478757
1856 1 16.661004302 17.7704404023 1.38697091778
2044 1 18.2525276864 16.9526068855 3.22078201624
2023 1 18.1020134227 19.4272279529 3.24294936719
3198 2 22.6105601793 18.4317581874 2.10101115765
3026 2 20.0487655258 16.8568693237 1.66778390421
3209 1 20.8348055408 17.9825710323 3.54384326164
2027 1 22.3509437048 19.6104590106 0.0645192816171
3204 1 23.9082267451 17.6782092344 0.458399090591
3203 1 25.8455541133 16.0503935542 0.387125762258
3196 1 26.743184306 19.3831562365 2.76001173824
3197 1 24.7550547823 17.7347023441 2.56540740488
3202 1 26.1579762005 18.4808865934 0.635548996989
3219 1 26.8444877249 16.836417164 2.71773745117
3218 1 29.0341276737 16.0192182248 3.12361335126
3200 1 30.4353327323 19.3330023834 1.31845364337
3201 1 28.2664417909 17.6567686344 0.888605289233
3217 1 28.9792050425 18.5178517962 3.11822664186
3221 1 30.4698416367 16.8491594065 1.32668215242
4543 1 32.7018554368 16.0059952378 1.75398551886
4542 1 32.6664778312 18.491331193 1.74809864829
3216 1 31.2151551275 17.677858958 3.5393425603
4541 1 34.9091059448 17.6649704231 2.19821454932
4547 1 36.4384790698 16.0091725971 0.44296497768
4540 1 37.0710895287 19.301924519 2.65340480337
4546 1 36.3588875764 18.5051544351 0.431966580051
4563 1 37.1505307999 16.8311161521 2.65685645495
4545 1 38.5629228016 17.672746426 0.878987494598
4694 2 42.5571501402 18.4405623262 1.91135658661
4562 1 39.3695533436 15.9370021363 3.10204185533
4544 1 40.531313841 19.2346953916 1.36694605183
4565 1 40.6710150299 16.7531776815 1.31165835221
4561 1 39.2079888485 18.4440237742 3.1568720334
4560 1 41.4465221027 17.5268916609 3.58913859261
692 1 42.5630739606 19.7462119056 0.099794065322
4750 1 1.93377883281 20.4524590292 1.84085539942
691 1 1.76110920616 23.2343195163 1.94726455046
860 2 0.580998332814 21.7096986474 0.516735224236
690 2 3.59857698797 20.1001313572 3.56612776691
4728 2 0.807011826004 21.2970903368 3.53612487024
677 1 4.03721003855 21.6749110815 1.56024739418
680 1 6.21878167966 22.5657909535 1.18328662733
681 1 6.28881654258 20.0836183818 1.11255541354
697 1 5.58767985593 20.9858104761 3.3247705384
676 1 5.38132765166 23.441145705 3.36755188823
679 1 7.73957750366 21.8029895085 2.94733185712
682 1 9.93677233501 22.6565574984 2.54538199924
683 1 9.91572334757 20.1637252738 2.55088585011
684 1 8.48044354963 20.9621874722 0.746770074455
673 1 8.43700506089 23.4379368465 0.769819939507
2019 1 10.6893788145 21.8266268272 0.334841171773
2021 1 14.3573588958 21.8680954928 1.70959012507
2035 1 12.1274731145 21.0279436396 2.11365846966
2018 1 12.1571369797 23.5139127659 2.13468714651
2025 1 16.5591472146 20.2550734077 1.31143803136
2024 1 16.645155495 22.6864478576 1.40108675023
2041 1 15.8086655894 21.0894628854 3.4505474411
1854 1 18.1638553872 21.7804916301 3.14980341905
2020 1 15.8710989353 23.5347314284 3.52375282915
2212 1 18.8063175914 20.9454388556 0.616778955936
2017 1 18.9065527475 23.4130727626 0.836607364423
1858 2 20.0002761263 20.169280135 2.28497981513
3367 1 22.2282088895 20.8394873495 2.24294141536
2043 1 20.3949080717 22.4255165847 2.58244131153
3373 1 21.0810599987 21.6991435875 0.308589144716
3363 1 22.4769772094 23.3872877499 2.21539056841
3388 1 24.4689557353 20.1124525204 2.14466045009
3365 1 24.6089071005 22.602741239 2.26971975937
3371 1 26.0680566025 21.0746871412 0.644326638703
3387 1 26.7582054128 21.860413374 2.75112658611
3370 1 25.8821547064 23.4736027386 0.32000120606
3362 1 23.5176607814 21.9035296509 0.280805200301
3390 1 28.221769347 20.1575416517 0.911590876964
3369 1 28.181507411 22.6842152424 0.92733689054
3389 1 30.4225026238 21.8273510919 1.32859028698
3386 1 28.9604240856 20.9941621677 3.10734697435
3385 1 28.9451911981 23.4656238704 3.1184038578
4711 1 32.6531199862 20.987954499 1.75012530785
4710 1 32.6858741094 23.4734820698 1.75860271427
3384 1 31.1939850026 22.6357003926 3.52008357533
3406 1 31.1869146604 20.1559602976 3.5251980469
4709 1 34.8996227512 22.6210397989 2.19370889066
4732 1 34.8710262376 20.1496801352 2.19888119896
4715 1 36.3302783939 20.9793777012 0.421332508045
4714 1 36.4123008898 23.439693839 0.438543955812
4731 2 37.077415309 21.7294088992 2.63100550474
4713 1 38.6641932507 22.6478303772 0.987537585663
4734 1 38.5051252992 20.1720013016 0.872214258409
4733 1 39.3732053013 20.9636157887 3.04724854807
4729 1 39.7708709243 23.4522132264 3.22626884435
675 1 40.8656097097 21.7439390189 1.18254442969
4918 1 42.2265040069 22.9702674318 2.59698271376
703 1 41.5295114174 20.054630111 3.37078472541
878 1 0.498125132572 25.2051041365 2.03820303579
858 1 3.06915932476 25.1164082153 3.61093147791
1027 2 0.492249582673 27.5163744011 1.55480037755
845 2 3.88674398651 26.4388170712 1.49924349146
866 1 3.94251337955 24.0919600602 1.54074880658
849 1 6.15686696228 25.0280975916 1.1832567633
865 1 5.380467077 25.9159842574 3.34395480822
848 1 6.20404531861 27.4437464266 1.26910185779
868 1 7.6470178553 24.2750945609 2.96355454785
847 1 7.65987320402 26.7421080448 2.99504763317
851 1 9.89570999554 25.1272175886 2.56727724863
852 1 8.40663339257 25.9103138283 0.799301376747
2204 1 10.6641128571 24.30082435 0.369262027983
2187 1 10.6514126253 26.7736023886 0.388454469292
850 1 9.88869063262 27.5861712718 2.55398478993
2189 1 14.3719121408 26.8122603499 1.75081809077
2203 1 12.1324243804 25.9763755189 2.14440256273
2210 1 14.4109109493 24.3413573981 1.73210483758
2022 1 18.1288252869 24.219091817 3.04060861464
2193 1 16.682763154 25.1685267806 1.31259446836
2209 1 15.9054236509 25.984609881 3.46380967825
2352 1 18.9591414482 25.8312714285 0.859254027154
2195 1 18.2931577041 26.7620844738 3.08711990108
2192 1 16.6385824201 27.6122933537 1.39384539377
3530 1 21.1680802976 24.0599280207 0.329169116005
3541 1 20.3901868334 24.782469047 2.61838513387
3534 1 22.4325208257 25.7699587303 1.85009272152
2211 2 20.6288110068 27.0449213082 2.14245592847
3364 1 26.7289846888 24.29763503 2.64715020488
3539 1 25.9971643671 25.9310799639 0.402897140694
3555 1 26.7970165479 26.7992163299 2.57453091602
3556 1 24.554538915 25.122416666 2.27041622542
3361 1 23.5894702057 24.4052910861 0.138546620493
3533 1 24.5506925662 27.6597994694 2.17601592676
3368 1 30.4501824256 24.3061235158 1.33504033497
3554 1 28.99576297 25.9358356963 3.07199917641
3557 1 30.5276556283 26.7907507668 1.31671978389
3558 1 28.2165713673 25.1261261107 0.861106047873
3537 1 28.3040795726 27.61121037 0.842024668633
4879 1 32.7367841258 25.9286889407 1.78767411554
3552 1 31.2539634924 27.5630860984 3.51741612134
3574 1 31.2291154011 25.1003046203 3.53363772183
4884 1 34.2112238857 26.7671173811 0.0348468529729
4877 1 34.9157387826 27.5405485217 2.21994200065
4900 1 34.9707957204 25.0699214546 2.20835467421
4708 1 37.2500333321 24.2064398573 2.65602264341
4883 1 36.4225493639 25.8942120785 0.417355539664
4899 1 37.1482025388 26.7018083325 2.59896802791
4881 1 38.6820810712 27.5684894996 0.889791506829
4902 1 38.6489975562 25.0901318293 0.89617192426
4712 1 40.8765202517 24.4582150481 1.32804883809
4901 1 40.920455734 26.8218851228 1.36108323945
4898 1 39.3925887308 25.8993230084 3.06694364007
1046 1 0.921408224032 29.2317723817 3.16002610851
5207 2 0.501454440181 30.5427735299 1.05403882146
1034 2 3.40809078169 29.5448232053 0.616095447702
1026 1 3.4186043525 29.8427274006 2.92425085451
1028 1 1.28789250909 31.5079755245 3.20380862962
844 2 5.48425595238 28.445919768 3.43193215294
1017 1 5.9233401176 29.9451253922 1.30499198478
1033 1 5.3761524108 30.9617851927 3.52716443558
1036 1 7.63243690475 29.2292729302 2.95967758631
841 1 8.38921286785 28.3760933763 0.815988846855
1019 2 9.8954334967 30.0669623929 2.53616271094
1020 1 8.32250036021 30.8248442247 0.825686367348
2372 1 10.6620763743 29.2299715467 0.36933911424
2186 1 12.1365756071 28.4514257565 2.13100896066
2371 1 12.2042100271 30.9169326546 2.10775818779
2378 1 14.4123180611 29.2843216146 1.7395508538
2188 1 15.8262786559 28.3796700999 3.51141462609
2377 1 15.8376628184 30.7206357315 3.62501929487
2360 1 16.7042231916 30.0836277367 1.35019740569
2361 1 18.0496538912 29.3815094308 3.38151605981
2191 1 18.8650919591 28.2972068818 1.21257318749
2194 1 19.4124395424 30.5467467632 1.22031249749
2363 2 21.657602862 30.6042402467 2.6814019697
3531 1 22.3921404171 28.3949154398 1.6553637925
2379 1 20.4636654304 28.8346277437 3.42440659642
2342 1 22.0408515667 30.4865360171 0.537292390472
3532 1 26.7377286625 29.2984161099 2.57016192004
3538 1 26.084609102 28.4222835607 0.383379196665
3707 1 26.0508833995 30.9205215428 0.355524144932
3724 1 24.3819148155 30.1854913873 2.08727382739
3536 1 30.5264457454 29.2765251204 1.27553041818
3553 1 29.0211207413 28.4312678444 3.03763478119
3722 1 29.0469311009 30.9078011074 3.03959324343
3726 1 28.2909004949 30.097772915 0.839307911889
4878 2 32.718668199 28.3898900147 1.75169846199
5047 1 32.6932256165 30.8575983454 1.71444082311
3742 1 31.2492047525 30.0049867365 3.47766499151
5068 1 34.914250868 30.0121156344 2.18121704582
4876 1 37.1321545431 29.1952080875 2.64832997807
4882 1 36.4245204542 28.3666166462 0.454777856876
5051 1 36.4883514651 30.8317018717 0.4486163277
5070 1 38.7491542853 30.0126405567 0.92011090006
859 1 41.5452837142 27.7410593696 3.47631137479
4880 1 41.1552027255 29.1698994376 1.38649172882
4897 1 39.369518324 28.3918034171 3.0146563271
5066 2 39.0486150926 30.7166702389 3.48466163911
5086 1 41.5259029218 30.4489736054 3.35065617914
5069 2 40.5706324168 31.526296307 1.2261384619
1013 1 3.83213541148 31.8049962062 1.55987088855
5048 2 2.00122802247 33.3610983878 2.24667723203
1340 1 2.46187186578 34.8392964487 0.00492132102001
1195 1 3.16221969203 34.9823071442 3.7004150474
1202 1 4.17227871961 34.199651571 1.68034902527
1015 1 7.64509644816 31.6777673329 2.99876532803
1016 1 6.15192760251 32.4414731382 1.23630845934
1185 1 6.28689795688 34.9770653979 1.15823109103
1025 1 5.52948203397 33.3596460521 3.4393470519
1204 1 7.72652585992 34.1596233924 2.97407993141
2355 1 10.6344901542 31.6839044134 0.399401431881
1009 1 8.43611088909 33.3071276387 0.797283833746
1018 1 9.90460309709 32.5257382461 2.56737260529
1187 1 9.96562475525 34.9868848583 2.55078904976
2540 1 10.7050288609 34.1526729824 0.365786484125
2357 1 14.5840142466 31.7544605776 1.72716054322
2354 1 12.1629239 33.3549872703 2.15302178121
2546 1 14.4028690653 34.1828906843 1.74178127751
2515 1 12.9217934223 32.5384913099 0.000863516138655
2358 1 17.8078852309 31.6793517298 2.75175785959
2527 1 18.2690643191 34.1218826961 3.31223512488
2688 1 16.9565974051 32.9700370403 0.908432715309
2356 1 15.9410072584 33.2054865087 3.37121223805
2529 1 16.4580312084 35.2137031943 1.60602933034
2673 1 18.7623325328 34.9513755443 1.00439482441
2362 2 19.3518484333 32.8340264741 1.55581255337
2682 2 22.5139190635 33.7293388099 2.0656300639
2531 1 20.9688563951 34.2871874941 0.610637398143
2532 1 20.707732791 35.4395490156 2.96058048438
3723 1 26.8232761828 31.7520817092 2.58470624631
3700 1 26.7916752949 34.2192441275 2.58762879698
3701 1 24.6557164697 32.6941364207 2.21202859802
3706 1 25.9924763364 33.4324444776 0.331796450682
3892 1 24.589713447 35.1172147684 2.16097032916
3709 2 23.9689504768 31.8360317498 0.153824760656
3725 1 30.4992063546 31.7424751249 1.28924197806
3704 2 30.4674136657 34.2588581391 1.17649935861
3705 1 28.2602618112 32.5740489916 0.809960176694
3721 1 29.0326715772 33.3665752805 3.02757425895
3894 1 28.252300688 35.0374317698 0.817753559078
5046 1 32.6819647977 33.3067666421 1.75780815387
3910 1 31.2365021275 34.9523332141 3.48244394868
3720 2 31.2524737249 32.4415869824 3.60931310597
5041 1 34.2130783185 34.1233635475 0.0287765568362
5045 1 34.926567399 32.4871666725 2.18549720774
5067 1 37.1579151941 31.6865281421 2.63709300101
5236 1 35.0156697631 34.9508255863 2.22599613886
5044 1 37.3400587968 34.1172778694 2.64226707362
5050 1 36.4479449767 33.3109433641 0.452460904629
5049 1 38.6075041859 32.4990976701 0.728211332691
1010 1 42.4166076977 32.8327373556 1.89115403421
5238 1 38.8539307707 34.9130543295 0.881838522615
5065 1 39.6911541414 33.2475281776 2.92429594806
5237 2 41.4405945877 34.7638003411 1.38579799502
1178 2 1.91161588605 36.2225355245 1.84486815203
1193 1 3.14569436896 37.6034025895 3.50749079529
20 1 0.615673871292 37.9828355725 1.96948149721
5375 1 0.187927294841 36.1610703383 0.0616940826486
1181 1 4.11914847706 36.6010003506 1.51247739255
1201 1 5.46890583005 35.810142184 3.35435430587
26 1 4.35451397468 39.0136352792 1.55400262446
1184 1 6.31912022447 37.4552695031 1.12979029126
1180 1 5.60332142991 38.2528391411 3.36979738772
1183 1 7.74219928793 36.6247431125 2.95351900346
28 1 7.86237776537 39.0856444211 2.9751188563
1188 1 8.50884801807 35.8033718677 0.760455768
1177 1 8.55461459832 38.2735514559 0.723791577452
1186 1 9.99440434733 37.4563404596 2.52782963047
2523 1 10.7566911239 36.6391290637 0.353617959083
1364 1 10.8176312775 39.0788584085 0.335691876498
1370 2 14.3982875516 39.3016475162 1.60169446168
2539 1 12.2090774281 35.8215321882 2.12962690805
2522 1 12.2478950314 38.2847320613 2.12443530941
2525 1 14.4429203379 36.6317749692 1.67124047598
1351 1 18.3231438233 38.8953412311 2.51405817523
1372 1 18.1814150711 36.5727754475 2.98389047826
2524 1 16.0016829585 37.9859710116 2.609933329
2528 1 17.2244163449 37.219131003 0.709781057257
2716 2 20.3514213784 39.1828604172 1.30834764339
2521 1 20.0676486139 36.8873781083 1.27294898482
3702 1 22.4797747604 36.0141461855 1.66136463547
2530 1 20.8165093175 37.7866888037 3.42818639462
3865 1 22.3623272527 38.2890948665 1.26333015881
3875 1 26.0395208385 35.8842034309 0.371534996342
3869 1 24.5070271169 37.5599508026 2.11871357828
3874 1 26.0733567961 38.3547543041 0.408015792654
3891 1 26.759414721 36.7033929778 2.61116467416
3885 1 26.7800728229 39.1752299281 2.59328068201
3890 1 29.0067776548 35.8204803897 3.04354183815
3872 1 30.5319168176 39.1100545337 1.2910852276
3873 1 28.2968799254 37.4975406947 0.846600764483
3889 1 29.0079811021 38.294185336 3.07423803027
3893 1 30.5308842266 36.6620402551 1.29126583426
5215 1 32.7563393667 35.7715023658 1.74937115215
5214 1 32.7636578392 38.2541830896 1.72771529294
3888 1 31.2656630692 37.4169507846 3.50167920007
5213 1 34.9903974409 37.4181692619 2.16813969362
5219 1 36.531863135 35.7483612543 0.458619871246
5212 1 37.2315226163 39.1035649919 2.61242219096
5218 1 36.5177402741 38.2463768652 0.440834776851
5235 1 37.2073763453 36.5756371204 2.62235011969
5217 1 38.7228563486 37.4269844293 0.956424887534
5234 1 39.4896789163 35.7199182094 3.0327648683
4078 1 40.9901689626 39.239042016 1.76762332397
5233 1 39.3223211036 38.2178306408 3.1597437006
1179 1 40.9813897709 36.9086130499 1.43020072129
5232 1 41.5421081751 37.5836780945 3.66627113179
14 1 1.23756129891 2.17324828822 3.78431552082
37 1 2.42713177087 1.26033392106 5.77744873421
13 1 2.41485317563 3.74125105064 5.83729806095
18 1 3.42166806566 0.431026289148 3.75682728467
16 1 4.72816394997 2.03800560624 5.54385847899
23 1 7.04028858657 2.83249054093 5.15748678101
24 1 7.05632511719 0.3667909685 5.15457160609
15 1 6.16189382285 3.61642209147 7.32656793103
42 1 6.20379044817 1.18432371975 7.31898628854
22 1 8.50230593417 2.00195929465 6.930190797
27 1 9.33439569173 1.18130902747 4.75698141008
1375 1 10.7868378819 2.83246028194 6.52550973732
1376 1 10.7897520728 0.360502791616 6.53270148914
6 1 9.32639261988 3.65102598683 4.76288025898
1358 1 11.6148139392 2.0054429519 4.3475831234
1361 1 13.9030382599 2.81848369379 3.95580781226
1362 1 13.8071395808 0.268999722563 3.9210544405
1360 1 15.2668836165 1.90871230779 5.65770913512
1381 1 13.0614288015 1.17458918741 6.1042379759
1357 1 13.0622292014 3.64342319559 6.15524620191
1368 2 19.0536716323 1.40555380521 5.4869136485
1359 1 17.2422838111 3.01459233368 6.08187067652
1367 1 19.0041621656 3.93961167763 4.63129133204
1371 1 20.9011865832 2.59138079351 4.88085733803
2526 1 21.4847143288 0.373779568022 5.51117376883
2695 2 25.6908642893 1.31286476576 4.12294424746
2730 1 26.1720900076 2.02476420833 6.55106427586
2731 2 24.2177407746 3.08966303767 6.17175858783
2704 1 25.4892417306 3.78700419138 4.36963484738
2711 1 23.9604595253 0.658555199079 5.67333875936
2733 1 27.6130648454 0.358280205456 4.83274091802
2708 1 27.6574550426 2.84034477196 4.79483963639
2732 1 29.8151112087 1.97508921468 5.27388361378
2729 1 28.3195417559 1.1528929844 7.05393783741
2728 1 28.2996743118 3.62648004364 7.04537077833
4055 1 33.5188865606 1.99221575002 3.939041528
4048 1 34.2666126001 2.78826266171 6.15875470583
4050 1 32.0492318991 1.14646678763 5.70913658989
4075 1 34.284894192 0.291657703511 6.12733204853
4049 1 32.0348740454 3.63091506136 5.71326869966
4052 1 37.9517017247 2.78541943556 4.8448355698
4053 1 35.7509832917 3.6360994672 4.40232147596
4054 1 35.7509942596 1.19094200648 4.38148577758
4074 1 36.4735238277 1.92697729396 6.60215546877
4077 1 37.9179692666 0.308543526197 4.84794993659
4073 1 38.6871706125 0.978719307204 7.11978651182
4072 1 38.743889373 3.55737329809 7.03767915115
31 2 42.4882706715 3.71302168493 5.63593620253
32 1 42.3563582679 1.27204316727 5.51437665836
4076 2 39.9392965584 1.80161909572 5.50935434664
392 2 3.52873677328 5.27665223618 3.76957794253
182 1 0.360972302134 6.92568512997 4.70838621616
206 1 1.18477401239 4.74281834533 4.06336177338
224 1 2.5128369848 6.27335259019 5.85519142556
200 2 0.255690689498 6.64264828074 7.01459849916
211 1 4.76677635653 4.4932299865 5.57378921841
184 1 4.78454468109 7.03868222542 5.50586575456
192 1 7.06225370166 5.30122754271 5.17880026944
191 1 7.02045642251 7.76107233479 5.08630655039
210 1 6.17350440063 6.11376861176 7.30181413157
190 1 8.44798974756 6.94661501699 6.91763084917
195 1 9.31579100544 6.12273969537 4.78064565139
213 1 8.48737926012 4.46528480314 6.94018249399
1526 1 11.549362326 6.97091995401 4.3692320292
1544 1 10.7752361133 5.30714470572 6.53654268281
1543 1 10.7140723953 7.77596558028 6.55204137721
1550 1 11.5902573658 4.48223785441 4.35758051426
1530 1 13.8349890757 5.30878502636 3.93888616468
1549 1 13.0464246684 6.15144932058 6.12914490329
1555 2 15.2057181843 4.49796046335 5.71433716043
1528 1 15.3759539902 7.00992472134 5.85412917508
1529 1 13.7886722821 7.78707842299 3.98972206619
1536 1 17.4274459962 5.4031173971 5.4173462384
1350 1 18.9817603996 4.42136779204 7.30329975471
1539 1 17.7705750521 6.87655447912 7.33910963432
1523 1 20.9666698841 5.22741601113 3.72307074358
2873 2 23.1600803215 6.61951429699 4.03015590908
1522 1 19.494698219 6.68767986974 5.47904196742
2726 1 20.9340263392 4.48525094541 6.10803574249
2874 1 21.8810177004 6.44114959728 5.81711041747
2691 1 23.0202716543 4.13011453396 4.27575635382
2899 1 23.8278382972 5.37165808013 6.31207687875