ITEM: TIMESTEP
32000
ITEM: NUMBER OF ATOMS
5376
ITEM: BOX BOUNDS pp pp pp
0.0 42.7297273569
0.0 39.5600404449
0.0 37.0050293879
ITEM: ATOMS id type x y z
5216 1 0.656812361979 2.02588826202 1.45558634909
1207 2 1.55500339398 1.03104204305 3.1663351119
163 1 2.64638497052 3.16074574198 0.0761274251646
5 2 4.34658069487 2.13769623509 1.71948646855
8 1 6.35972212505 3.00441049757 1.31467724552
9 1 6.20146084038 0.475712368551 1.33152884185
25 1 5.44586327806 1.29579329496 3.57714301279
4 1 5.53012000879 3.8231587797 3.5319356268
7 1 7.77452557058 2.15673374386 3.10714691612
10 1 10.0418445336 2.99751531455 2.66484868694
11 1 10.0184226898 0.525244865788 2.63106549043
12 1 8.4827341423 1.33912741532 0.891718433682
1347 1 10.7998551464 2.15542141453 0.488166844327
1 1 8.56372962445 3.8225712 0.895043453622
1349 1 14.6323804575 2.15325133522 1.92889335941
1363 1 12.3114016233 1.35110120916 2.24724670428
1346 1 12.3505211394 3.82162648831 2.29554776353
1507 1 13.109643503 2.99511731634 0.13144299681
1508 1 13.0558285283 0.523541723335 0.0544415938357
1352 1 16.8489113752 2.91549856391 1.68515146393
1353 1 16.7767338204 0.442785380743 1.35794805376
1540 2 18.4788530759 1.23457976311 2.48697128276
1356 1 19.3770253543 1.11037126608 0.236038598005
1513 1 19.7662083697 3.22305350994 1.87566572644
2710 1 22.3323999615 1.3671079626 1.72866875728
1355 1 20.5788754911 0.515406526379 2.79821599735
2689 1 22.3039312126 3.87297575828 1.87313822292
2863 2 21.0285331927 2.84605144309 3.6989465398
1490 2 21.3904839005 2.74072043784 0.176631528963
2694 1 24.5564037718 2.83082393124 2.17989232016
2699 1 25.9679705155 1.10792263096 0.366138250932
2698 1 26.0718052823 3.57652276139 0.393237715643
3868 1 26.7752693475 1.90707253135 2.56950895882
2709 1 24.4723126162 0.29991346037 2.12897671444
2697 1 28.2839469339 2.71644295617 0.809220580562
2714 1 29.040955913 1.05472999986 2.9950876777
2717 1 30.5377552817 1.87208987242 1.23156983881
2718 1 28.2412633404 0.270788074604 0.820052855567
2713 1 29.0425874945 3.52539715496 3.01659709847
4039 1 32.8018674316 1.03227592795 1.6518033674
4038 1 32.827687642 3.49710675192 1.67559008436
2734 1 31.3105696194 0.210145063926 3.41921371625
2712 1 31.3188547905 2.67856321992 3.43327295691
4060 1 35.0575531449 0.187686937041 2.04674961172
4037 1 35.1025343463 2.64811406619 2.1019384151
4043 1 36.5758773335 1.02988813067 0.321261269748
4059 1 37.371218411 1.82058239632 2.52722869264
4042 1 36.5721549628 3.50474198673 0.33068483928
4041 1 38.8012784996 2.65658006387 0.729298453588
4062 1 38.8343218146 0.152725348402 0.731330807991
4058 1 39.6418418441 0.977133347303 2.88031506549
4057 1 39.7874824549 3.47894060576 2.91209443004
4196 1 41.0775813772 1.87609610108 1.14324910284
4056 1 41.9570327334 0.0992440839525 3.24145007457
17 1 41.8750229172 2.41332869618 3.54449908235
193 2 2.03494957734 4.12369011238 2.02280357895
187 2 0.565017366865 6.61590377888 1.1243893639
206 1 1.25582614229 6.21405697198 3.2152864744
173 1 3.89510627919 7.17311685927 1.7491294206
194 1 4.16004479808 4.68153274477 1.67789244481
177 1 6.31335941931 5.49950432587 1.29421641922
172 1 5.45510078755 6.30608611478 3.48987962774
175 1 7.74291376183 7.12616056256 3.08349986542
196 1 7.7519526159 4.65317976419 3.08735921162
179 1 10.0129752768 5.47659119702 2.67156833367
180 1 8.56291536761 6.3050228137 0.912582701757
1532 1 10.8289275216 4.62231309186 0.521531952655
1515 1 10.8089456391 7.137745672 0.441951644199
1517 1 14.4097785709 7.05462248907 1.65958739237
1531 1 12.2452775066 6.30981993533 2.2264567974
1538 1 14.6601118764 4.63516061894 1.86789125353
1676 1 13.0431540287 5.44521248451 0.086955926388
1519 1 17.9641468356 4.7970562402 2.87947983617
1521 1 16.8148506091 5.98391754631 1.14259736069
1839 1 18.4531058567 7.11525450792 3.08851669551
1672 2 18.0266034692 4.26061881233 0.399694242867
1537 1 15.9425396621 6.26902389528 3.44762493773
1524 1 19.6878097414 5.69498311255 1.55513077441
2868 1 22.1123459898 6.29427721491 2.03800395695
1680 1 20.5053018626 7.71251076355 0.86752589473
1842 1 20.8405441897 7.73437053924 3.48227018419
2857 1 23.2745299152 7.00191457611 0.0344140071594
2692 1 26.7594764562 4.39125247087 2.62759829358
2867 1 25.9838538154 6.07236381716 0.490709978715
2883 1 26.7908366043 6.86068027073 2.64537760925
2884 1 24.4488377012 5.31802392406 2.23298361021
2861 1 24.5116915954 7.74875790357 2.15566854499
2715 2 24.0092346729 4.49739978231 0.0465308969644
2696 1 30.5531566962 4.34009755998 1.25497281306
2882 1 29.0644195425 5.99978547251 3.02574436199
2885 1 30.5955549246 6.80614833155 1.26394086463
2886 1 28.2766552221 5.17244834804 0.845720043617
2865 1 28.3906863231 7.63551184852 0.871555906526
4207 1 32.8440676652 5.96932331932 1.68559505939
2880 1 31.3533156248 7.62531926838 3.45195555993
2902 1 31.3425795818 5.14794038395 3.4469485989
4205 1 35.0931941882 7.59659033155 2.10113298435
4228 1 35.1091937941 5.11161118266 2.11393743561
4036 1 37.3852218848 4.25701421427 2.56086420141
4211 1 36.5001726663 5.98634644414 0.311547759842
4227 1 37.3840181448 6.72447032198 2.51228923376
4230 1 38.6663926098 5.17601236011 0.706767305671
4209 1 38.7698479102 7.63465426062 0.73218048523
4061 2 40.7021137532 4.37309773509 0.770234582701
4226 1 39.7804080864 5.84182575233 2.89278899037
4397 1 40.9892536459 6.7762317892 1.07296354275
4246 1 42.4476720075 4.35352393491 2.02852237609
182 1 41.8445197 7.50758250948 3.23377911342
4229 1 1.19671606353 8.73506229327 1.72680040603
374 2 0.337960479786 10.955580875 1.79103300099
355 1 3.87347983708 9.58378597076 1.7770663094
499 1 2.16914436589 10.5854141173 0.228265235281
176 1 6.23810769585 7.94339859349 1.34110123523
361 1 5.46667359105 8.7847033058 3.49130071634
345 1 6.19528011808 10.4068466179 1.23008933185
353 1 5.53188092265 11.2728614716 3.43537994901
364 1 7.73276960638 9.60390106731 3.03246022411
178 1 10.0163809161 7.95790729529 2.62981706976
169 1 8.50623465956 8.77018072904 0.836821875879
347 1 10.0241560669 10.4223016565 2.61075251244
348 1 8.52154694047 11.2304155572 0.848970786357
1700 1 10.7981606025 9.61143085635 0.416765678297
1514 1 12.3002859078 8.79728479295 2.18076537994
1699 1 12.2933286061 11.2673358471 2.18804335588
1706 1 14.5423910649 9.72386148427 1.78731832309
1844 1 13.0668512184 10.4705654268 0.00165101081251
1520 1 18.1020210802 8.06691971777 0.797809727482
1516 2 16.2059031015 8.24909108945 2.15413973309
1689 1 17.0305249752 10.5635634343 1.45084665667
1705 1 16.0445546343 11.3823954781 3.67726649639
1708 2 19.1374393394 9.20868527126 2.58816433414
1688 1 18.365399601 11.2512658457 3.31569228787
1848 1 19.798931892 10.1901520268 0.739912198941
2862 1 22.4192872434 8.95591966727 1.70585582419
1692 1 20.984925144 10.2741150932 3.48173126958
3031 2 21.4140667639 11.549010136 1.67280366904
2860 1 26.8034096898 9.3070263153 2.63646546835
2866 2 26.3065365352 8.36250812868 0.504203518661
3035 1 26.048378611 10.8543819478 0.430731534528
3052 2 24.5294061693 10.2373233034 2.28382662468
3051 1 26.8351135628 11.7474881767 2.55050552732
2864 1 30.5539602485 9.29095458435 1.2385708709
2881 1 29.0869811959 8.47479703066 3.05048498654
3054 1 28.2984021707 10.1213587255 0.821851399063
3050 1 29.0669814051 10.9276057365 3.01401683083
3053 1 30.521581962 11.7587430328 1.21277932747
4206 1 32.8232792664 8.45507115702 1.67556002632
4375 1 32.7923166498 10.9385974611 1.66543655663
3070 1 31.3319926588 10.1006081203 3.44054908094
4396 1 35.0545148233 10.0858338937 2.09640726686
4204 1 37.3133239312 9.23285141923 2.51621019232
4210 1 36.53072566 8.45741366837 0.319218170227
4379 1 36.5366840649 10.9263250193 0.333986622298
4395 1 37.2924926895 11.7238691172 2.55195930621
4398 1 38.7961899083 10.0931810164 0.767371611058
4225 1 39.5762921633 8.35837656267 2.91393417829
4394 1 39.5401994753 10.8790283448 3.00275775981
4208 1 41.0767901485 9.23366030582 1.2377059295
4224 1 41.8276775437 10.021817483 3.39719406495
542 1 40.866134868 11.6486003404 1.1691194632
170 1 1.61227550655 12.8232059869 1.85931119656
523 2 0.154218909375 14.6218290946 1.64952963639
530 1 3.86321869061 14.5241178348 1.72837205566
341 1 3.95223889768 12.0535677401 1.64695192664
340 1 5.45903927381 13.7478645736 3.46910489207
344 1 6.2263040698 12.8920328008 1.30247423854
513 1 6.18524016405 15.381533742 1.33408435619
532 1 7.73176637598 14.5413840636 3.04558147918
343 1 7.75644047975 12.0703780914 3.04006006539
1683 1 10.8082671319 12.0586476959 0.423469212862
337 1 8.5054296456 13.6955856796 0.864771627598
346 1 10.0138707431 12.8820509543 2.60803211092
515 1 9.99413727172 15.3608834896 2.60619979576
1868 1 10.75742938 14.5147159385 0.426168727291
1685 1 14.5765976773 12.1124049752 1.82900793462
1682 1 12.2345849628 13.7363783114 2.21570473192
1874 1 14.4398508411 14.5926785634 1.7397431852
1843 2 13.1213956362 12.9892799486 0.0963042731061
1684 1 15.9780364107 13.8044038821 3.5763866287
1857 1 16.5745875742 15.5569036265 1.07892555193
1833 1 16.739495591 12.9779488647 1.45530621835
1855 2 17.9293471751 14.624169817 2.52169344664
1876 1 19.1971122176 12.7007332426 1.54449608349
1681 1 20.4166187737 15.0595061198 2.78158139568
3030 1 20.8993532131 12.7953478724 3.45601389186
2016 1 22.5192457685 13.6049321376 1.57954506087
3028 1 26.7876575872 14.2493559279 2.48821592993
3029 1 24.7024510228 12.6442270637 2.16896257585
3034 1 25.9246147158 13.4137385347 0.229890804019
3220 1 24.5503715565 15.0371806478 1.83284411531
3032 1 30.5605245904 14.2271718848 1.22511372958
3033 1 28.2403075304 12.5748622091 0.758094340742
3222 1 28.3452921911 14.9895992162 0.77945168571
3049 1 29.0464571627 13.4033900746 2.97947906092
3048 1 31.306419491 12.5774746687 3.42722875605
4374 1 32.7964464421 13.4261723997 1.67697147178
3238 1 31.2906943656 15.0652027282 3.42676434403
4564 1 34.9974525557 15.041544913 2.10797139993
4373 1 35.0385753544 12.5683797311 2.11297044605
4372 1 37.2445664601 14.1967824104 2.53224298589
4378 1 36.4879755722 13.4003737737 0.332414674401
4566 1 38.7106157244 15.0713277226 0.783753634037
4377 1 38.7229667114 12.5841680565 0.760887120812
339 1 40.8243684591 14.1495686818 1.16254320763
4393 1 39.4866508214 13.3704618499 2.99183411679
4392 1 41.8154031854 12.7265100024 3.10364252281
349 1 41.663405718 15.194487296 3.53748620389
4703 1 1.97614345471 16.2278897427 2.01115901947
4694 2 0.349354534226 17.9786047531 1.52544328257
509 2 4.13155996274 17.0639775822 1.99224408756
508 1 5.42275534569 18.715524281 3.49174055797
512 1 6.26369769831 17.8477118659 1.31401962384
700 1 7.7264122183 19.4851168152 3.05079434012
529 1 5.5106060832 16.2197032042 3.57389530297
511 1 7.75947924791 17.0166971745 3.04366153886
516 1 8.47054466709 16.1762078198 0.853454246328
505 1 8.51565897891 18.6551308682 0.861743865358
514 1 10.0112872408 17.841934609 2.59636959572
1851 1 10.7340012536 17.0046954733 0.397256090724
2036 1 10.7440009508 19.495032991 0.394125786998
1850 1 12.2542073909 18.7040451907 2.13887111383
1853 1 14.4879292363 17.0846158714 1.68074525256
1867 1 12.2380420371 16.2193772556 2.15978529166
2042 1 14.5275159845 19.5470869122 1.70700493661
1852 1 16.0380116012 18.7152639184 3.46574655556
1873 1 15.9904843945 16.2972044148 3.36280748231
1856 1 16.7384935949 18.0032515679 1.18523212556
2044 1 18.3350612303 16.9236175703 2.52928954012
2023 1 18.3958840088 19.27703894 3.31622949324
3026 2 18.8195310831 19.2044875215 1.03007054874
3194 2 20.3006552216 16.1497820208 0.742273362701
3037 1 22.411566684 16.2338495827 1.89275544232
3198 1 22.8384320982 18.988331151 1.78711404015
3209 1 20.5910935946 17.8933451919 2.14407943895
2027 1 21.1531190298 19.7718144693 0.11360258307
3203 1 26.2361922186 15.8395924105 0.250428103945
3196 2 26.7226310368 19.2935386837 3.2006405619
3197 2 24.4156682615 17.33594194 2.45394112399
3219 1 26.8411506177 16.8041838875 2.44047586653
3204 1 24.1213326023 16.9272246934 0.163928854445
3202 2 26.4441377133 18.1625133806 0.210838605396
3218 1 29.006430433 15.8969560261 2.99424436621
3200 1 30.321099868 19.1689814668 1.27343380621
3201 1 28.4829171997 17.4328493104 0.691647565683
3217 1 28.9136575775 18.3261400188 3.1072664304
3221 1 30.5803769633 16.6982349905 1.27538031995
4543 1 32.7894632951 15.9032785976 1.67767656377
4542 2 32.6002138388 18.4383437444 1.7859671861
3216 1 31.196058771 17.5171816531 3.49747469655
4541 1 34.9164064656 17.5116056233 2.10847589724
4547 1 36.466935169 15.8601816234 0.353689764419
4540 1 37.1917738856 19.1213039742 2.55898597318
4546 1 36.4245649469 18.3187869731 0.37471434624
4563 1 37.1891278577 16.6725423875 2.52591327724
4545 1 38.7740527819 17.505139962 0.841075754987
4562 1 39.4807463145 15.8981681059 2.98660861394
4544 1 41.0089741098 19.1344222714 1.31904257045
4565 1 41.1226182325 16.6311424454 1.26468598056
4561 1 39.5114383062 18.3549487484 3.04329030343
4560 1 41.7795532429 17.726760028 3.55659096847
4750 1 0.551644575689 20.4767458034 1.88959572689
691 1 1.78140507093 22.5819312203 1.98697817584
698 2 2.81754267468 20.1718604512 1.35049343215
860 1 0.18351884447 22.619626789 0.10070058375
690 1 3.26143767739 20.5021133473 3.51322798091
835 1 2.63613696832 23.4835337732 0.0058863035613
677 1 4.07377402385 22.0707614101 1.701408884
680 1 6.30198355372 22.7682125873 1.34359234146
681 1 6.24008141194 20.3001383056 1.29089105223
697 1 5.55698321716 21.1983516631 3.51684384027
676 1 5.48719096352 23.6860075805 3.41389784009
679 1 7.78597992732 21.964987575 3.06051169588
682 1 10.010850897 22.8028564683 2.62359910488
683 1 9.99376650417 20.323689911 2.6003783114
684 1 8.4805490106 21.1325362073 0.838469234818
673 1 8.51245424414 23.6100504915 0.86296812032
2019 1 10.7331478858 21.9767397137 0.414520182037
2021 1 14.513954875 22.0193229206 1.77093850913
2035 1 12.2534775176 21.1767480189 2.17495466639
2018 1 12.2430618045 23.6518905769 2.20596932691
2025 1 16.7473467561 20.4560689281 1.34061103024
2024 1 16.7175784553 22.9003249557 1.28807640113
2041 1 16.1654808946 21.2235981456 3.50026872501
1854 1 18.5252196364 22.238659234 3.07304829689
2212 1 18.8345401065 21.4173299882 0.577105607175
2020 1 16.0594950008 23.6752015038 3.54956219665
3377 1 20.3310773459 20.4011889887 2.35525249012
3367 2 22.3129757605 21.1811854089 1.45963092385
3373 1 20.6169643531 22.6735804492 1.17150743801
3363 1 22.8133997691 23.4899958768 1.57504049724
2043 1 21.2953063885 22.3506565202 3.2860736541
3365 1 25.5287517859 23.4798070013 0.816209243228
3371 2 25.7605376009 21.22718412 0.853081460736
3387 1 26.720140775 21.7567063472 2.82779461013
3383 2 23.6416793211 22.5852270953 3.68407766484
3390 1 28.0254685327 19.9018589288 1.02532648988
3369 1 28.0225997778 22.4354479905 0.826118583168
3389 1 30.3154387048 21.6250537101 1.29539326828
3386 1 28.9005621943 20.7892074544 3.1378478932
3385 1 28.9383242887 23.2484684087 3.06065737662
4711 1 32.6335047801 20.8443789006 1.71654241977
4710 1 32.6291116436 23.2839888144 1.70827689827
3384 1 31.1917857925 22.4387529739 3.48970072835
3406 1 31.1793911168 19.9780066327 3.48182309883
4709 1 34.8701201393 22.416077187 2.13569669457
4732 1 34.9077713314 19.9673092133 2.14861226337
4715 1 36.3760837691 20.7939746941 0.375308553363
4714 1 36.2682349453 23.2909634294 0.391201833894
4731 1 37.1268750604 21.5732588552 2.54890140931
4713 1 38.5455922447 22.3874957099 0.816104530467
4734 1 38.6809883681 19.9447271166 0.808674204012
4733 1 39.405804921 20.7965479501 3.02734665685
4729 1 39.5317836264 23.2084421335 2.94933740126
675 1 40.8480306322 21.5034894977 1.17521228103
4918 1 42.201307915 22.6185031878 2.68853641599
686 1 2.02904154388 26.3592055544 2.13705911341
878 1 0.386136702684 24.9360474617 1.37457650961
866 1 3.71942179764 24.546718737 1.85993631298
4935 1 1.17561137967 24.5267444261 3.48367614388
845 1 4.17653370741 26.9125168912 1.59554804651
849 1 6.16736904866 25.2171822519 1.30198853894
865 1 5.530420747 26.1665116978 3.49364391284
848 2 6.50246258145 27.645697541 1.21165349408
868 1 7.76867181948 24.4552413037 3.02844696252
847 1 7.765132755 26.9220637306 3.13509376237
851 1 9.99931317421 25.2865689867 2.637137975
852 1 8.47958962898 26.0790445229 0.884270212916
2204 1 10.7362699647 24.4604478215 0.436204400731
2187 1 10.7158390888 26.9432949663 0.423471936288
2189 1 14.4820773651 26.9751561262 1.71365749996
2203 1 12.2273609467 26.1458260921 2.18186076265
2210 1 14.4661352327 24.4899832401 1.75601744712
2017 1 18.7897450166 23.8740844364 0.646562032983
2022 2 18.0869700282 24.6883167969 2.61031060705
2193 1 16.617399655 25.4282497861 1.13635127337
2209 1 16.0177947711 26.1385576648 3.4420436328
2195 1 18.3536480711 27.0524624151 2.77416447537
2352 1 18.9592014782 26.2220612375 0.616649442814
3541 1 20.3962572781 24.56810063 2.67799652176
3534 2 20.7943212508 26.8044732187 1.79790132774
3530 1 21.2570877845 24.8386728687 0.162141406895
3540 2 23.5674327066 25.5786400348 0.886566599564
3364 1 26.8167585245 24.270388221 2.69792161529
3539 1 25.787381763 25.8863608058 0.395677474987
3555 1 26.7254267264 26.684186039 2.60673133053
3556 1 24.4797856041 24.8291367415 2.74325098676
3533 1 24.4363281903 27.4788114787 2.30833785581
3368 1 30.356103928 24.0885373208 1.28127154798
3554 1 28.965789435 25.7578298393 3.03615678456
3557 1 30.4467484529 26.5550597696 1.25067804348
3558 1 28.0927191819 24.9384589191 0.82829981118
3537 1 28.1924088445 27.4295299156 0.837023619449
4879 1 32.715742215 25.7382543677 1.63898932256
3552 1 31.2370260659 27.3860334628 3.43322604992
3574 1 31.223173994 24.9188510097 3.4290204574
4877 1 34.9268573114 27.3674807037 2.09627110877
4900 2 34.9691706085 24.8399930303 2.22961929871
4708 1 37.2251220633 24.0496627442 2.54856873588
4883 1 36.3478002187 25.7358353988 0.335671914256
4899 1 37.1413949939 26.5248795906 2.51811840365
4881 1 38.623916428 27.3180649839 0.752949713929
4902 1 38.555548464 24.8558411631 0.703999973273
4712 1 40.8018357689 23.9149642752 1.01791451102
4901 1 40.8690714061 26.4046755325 1.05765977276
4898 1 39.3793566522 25.6705565603 2.81960623581
859 1 42.1097162356 26.8862144718 2.93833188866
674 1 41.4665668396 24.7171445207 3.29492471798
1003 1 2.74041476778 28.0301887457 0.0549984168611
1027 1 0.578882845751 27.9649122941 1.04447260049
5207 1 0.381243138959 30.8569173076 1.54075510082
5086 2 0.191221462599 29.0951212296 2.94217086577
1034 2 3.99521963663 29.4717544904 1.63952373077
1017 1 6.26521129366 30.2068868842 1.22856815438
1033 1 5.35552233881 30.9543451988 3.49291304387
1036 1 7.70537692432 29.3633338504 3.06237668893
850 1 10.0167747702 27.7464430422 2.64186179155
841 1 8.56623450592 28.5704198826 0.868784672801
1019 1 9.96541616032 30.1998162063 2.60212656877
1020 1 8.49486020255 31.0254167342 0.858593635978
2372 1 10.7695301192 29.4010248851 0.40524567833
2186 1 12.2375088566 28.6051753468 2.17120948517
2371 1 12.2045452579 31.0737139315 2.21182095019
2378 1 14.4855230675 29.4281071396 1.75198765608
2516 2 13.0155063632 30.3214824024 0.093750052989
2192 1 16.7350753067 27.8811672156 1.23006901542
2188 1 15.9750797488 28.5626269217 3.48250136998
2377 1 15.9725064548 31.051743653 3.460588874
2360 1 16.7001769717 30.2852735878 1.25876623599
2361 1 18.1492949983 29.4413068554 2.94397805351
2191 1 19.1894812189 28.6936293054 0.800601350754
2194 1 18.8488033934 31.0871014225 0.500905984984
2211 1 20.3470206914 28.4864907149 3.13163934198
2363 1 20.2232122085 30.5676287456 2.20829160409
3531 1 22.0974494606 29.0949501482 1.52340028989
2682 1 22.5534937377 31.1677365933 2.82778451814
2342 1 21.2384684951 31.6277771885 0.424633099938
3532 1 26.7274294676 29.1438855287 2.65793457272
3538 1 26.0097798646 28.3752843302 0.471358444333
3707 1 25.942760445 30.7908608232 0.413469005252
3724 1 24.4729647634 29.8633122076 2.2128447283
3709 1 23.6493836717 31.4613572756 0.404829104561
3723 2 26.8399036986 31.598174085 2.43469208851
3529 1 23.7746150679 28.0182047482 0.034172494735
3536 1 30.43614825 29.0412736018 1.24425278684
3553 1 28.977149365 28.2412166746 3.02930290325
3722 1 28.9967819382 30.7121630958 3.01345380497
3726 1 28.1937831885 29.9139907501 0.823557818757
3725 1 30.4661274943 31.5230948923 1.23829718955
4878 1 32.6946599926 28.1899634064 1.65333456534
5047 1 32.7076097506 30.6837504263 1.66110051882
3742 1 31.2437499564 29.8683296923 3.42390455273
5068 1 34.9554559939 29.8482570615 2.09843235825
4876 1 37.1862264781 28.9938855105 2.5014254704
4882 1 36.3929310158 28.2043536009 0.328550976876
5051 1 36.3869533324 30.6679899324 0.33334450727
5070 1 38.6483877651 29.7656931437 0.722775595372
5067 1 37.1861699802 31.4970077273 2.49142685306
4880 1 40.9567720702 28.9219510552 1.30368926113
4897 1 39.4360495232 28.088330871 2.91053003877
5066 2 39.2865670312 30.5941386182 2.76465233832
1010 1 40.8330630783 31.3920764877 1.10601948302
5048 2 2.00548414265 32.3030566784 2.12820347846
1178 2 0.401702633055 35.0537889977 1.37146430255
1202 1 3.84109217314 34.2113558345 1.72553245563
1013 1 4.10324349845 31.8515130131 1.6145583152
1016 1 6.23662356105 32.662795964 1.28533551461
1185 1 6.1257178795 35.1118664452 1.28787208642
1025 1 5.33960278737 33.4463635993 3.49362300212
1204 1 7.64616137862 34.2891869057 3.02710692314
1015 1 7.64447355286 31.81027074 3.04941303815
2355 1 10.7433443192 31.8449890473 0.431781880792
1009 1 8.46391557838 33.4908461588 0.850082373194
1018 1 9.91949747889 32.6627880501 2.60628348492
1187 1 9.90975143608 35.1415411564 2.58905911565
2540 2 10.7273948264 34.3221310963 0.413958063412
2357 1 14.4732198197 31.916199047 1.77217447551
2354 1 12.1861112291 33.5207246182 2.16793636108
2546 1 14.444507331 34.3631361542 1.77445728484
2515 1 12.9775048831 32.739935875 0.0219390864229
2684 1 13.0159225332 35.1740702653 0.00201777727081
2358 1 18.3592948409 31.8401456596 3.10829826338
2688 1 16.8504604356 32.7282937428 1.34414821163
2529 1 16.7494198829 35.1803328334 1.34070564082
2527 1 18.2305029479 34.1994437049 2.96453607156
2356 1 15.905253942 33.5094259876 3.46130401595
2673 1 19.6741264837 33.3637159185 1.18633504827
2362 1 20.6955573394 32.6577986324 3.36108993778
2531 2 22.3110144774 33.4277189802 1.774638672
2532 1 20.6496484916 35.1619240848 3.08851732057
3700 1 26.7793015259 34.0694463933 2.60061482817
3701 1 24.5878003456 32.4384039569 2.34833242788
3706 1 26.0104173242 33.2525493694 0.467891827211
3892 1 24.5096617281 34.8873772935 2.18284021917
3697 1 23.8304741833 33.9583110704 0.0171087943815
3704 1 30.454661022 34.0103635489 1.23718071273
3705 1 28.2569851306 32.4063987354 0.779985274955
3721 1 28.9740420319 33.166762014 3.02105045789
3894 1 28.2156234424 34.892617434 0.806156787586
5046 1 32.7154259279 33.1729742736 1.65871959742
3910 1 31.2864119594 34.8224320937 3.41562282849
3720 1 31.2404579354 32.3453154076 3.43019136772
5045 1 34.9711966799 32.3397710067 2.08037944154
5236 1 35.0254793365 34.8121733696 2.07334395002
5044 1 37.2938775107 33.9623473031 2.47125634418
5050 1 36.4572891048 33.1528094292 0.302031286021
5049 1 38.6798526988 32.2926455942 0.709167087818
5238 1 38.8062392217 34.7481241524 0.68302645656
5065 1 39.5095500798 33.0675913866 2.87719377909
5237 1 41.0248446792 33.8233527635 1.19457163726
5254 1 41.8183618822 34.7526591509 3.38524535981
5064 2 41.767460606 32.3334971503 3.17435418399
5234 1 39.5707152234 35.5386940162 2.8216106051
26 1 3.76364509077 39.2574650432 2.11262421879
1339 2 1.91307169879 37.3511543069 2.77890807587
20 1 1.27004558667 39.0729688537 1.26758988114
1181 1 3.92194590165 36.702179862 1.74922007038
1201 1 5.47033053165 35.9465093987 3.4990255347
1184 1 6.20523881498 37.5743318139 1.34769299238
1180 1 5.54933195743 38.4106464465 3.49952556989
1183 1 7.73537025974 36.7612609414 3.0512790597
28 1 7.76107064964 39.2566014698 3.06020430672
1188 1 8.43185776127 35.9490311092 0.849559722334
1177 1 8.4794834932 38.4171158088 0.869067667075
1186 1 9.99145835398 37.595484256 2.62324523292
2523 1 10.7255412319 36.7895554921 0.431361949654
1364 1 10.7659128453 39.244020977 0.450468214564
1370 1 14.5443850741 39.2580252738 1.85413997751
2539 1 12.1825435609 35.9760732711 2.18855843248
2522 1 12.2538275066 38.4380558939 2.21628589013
2525 1 14.4575491973 36.8000078154 1.80439633393
2683 1 13.0109694984 37.6176771459 0.0198541136125
2521 1 19.3339361919 35.8265023857 0.910096522861
1372 1 18.2190848175 36.5342594742 2.96303675897
2528 1 16.7302608599 37.5807263599 1.39277169779
2716 1 18.9296665698 38.3782378694 1.10751066168
2545 1 15.9232438429 35.9236454566 3.55393453184
2524 1 15.972775427 38.3544656752 3.62693329809
1351 1 18.3193643352 38.8237585431 3.52381134387
3702 1 22.3433248347 35.7509240175 1.65224461383
2530 1 20.5740494658 37.5400889866 2.73110063561
3865 1 22.5811316619 38.22893954 1.77005988378
3013 1 21.3117090353 37.0213090782 0.0188280860315
2869 2 21.0042276983 39.1724405796 0.560973451329
3875 1 25.9714801197 35.7275452982 0.422006574874
3869 1 24.6256430538 37.3470375769 2.04775563421
3874 1 25.9169228923 38.216438806 0.259851244837
3891 1 26.8094057643 36.5351021273 2.55302265246
3885 1 26.7294324127 38.9891583846 2.52722923456
3890 1 29.0285959894 35.6585260712 2.99419280269
3872 1 30.5098062819 38.9691537104 1.22334415699
3873 1 28.2071152684 37.3728519798 0.76020362134
3889 1 29.0143471412 38.1425648932 2.97847541777
3893 1 30.478763361 36.4991111929 1.21482840684
5215 1 32.7531801795 35.6519114415 1.64638042523
5214 1 32.7836506117 38.1250992803 1.64528299762
3888 1 31.2934075209 37.2995361496 3.40903554465
5219 1 36.5217460412 35.6222378435 0.310106736743
5213 1 35.0548435236 37.2827005655 2.06590889223
5212 1 37.308488745 38.9332759359 2.49440307732
5218 1 36.5476983242 38.1099682525 0.299268956864
5235 1 37.333685421 36.4488911715 2.4789606852
5217 1 38.8186690422 37.2300120369 0.672955334133
4078 1 41.102454304 38.8756525526 1.20586635348
5233 1 39.5162411933 38.0622307089 2.86285183413
1179 1 41.1170659784 36.3086422248 1.00460616761
5232 2 41.5128030086 37.1652535248 3.23712901945
186 1 3.36106897045 2.93807877274 3.89886287057
18 1 3.0463668816 0.687303167613 4.83626601722
37 1 2.35062786159 2.56991530075 6.27400298192
32 1 0.406793589423 1.0102264784 5.23087478511
14 1 1.15966774231 3.43939907479 3.93235074266
1206 2 0.248568381219 1.78532345126 7.38017353377
16 1 4.74476350439 2.15295083027 5.74716668975
23 1 6.96911122892 2.98273487861 5.2718368523
24 1 7.02201464765 0.507782862087 5.26275844349
22 1 8.45189529204 2.12863546567 7.02721126498
27 1 9.27609720607 1.33644115338 4.84089291433
1375 1 10.6711997286 2.99114699309 6.58002855326
1376 1 10.7369259786 0.507495244513 6.62395296433
6 1 9.21831022681 3.82010109246 4.83324700954
1358 1 11.5435407824 2.1828414742 4.42386900774
1361 1 13.8626780957 2.99191242012 4.08751805536
1362 1 13.8027778631 0.5759207812 4.01497836359
1360 1 15.283719947 2.19156563499 6.09628002755
1381 1 12.9647272849 1.36836294895 6.19958678162
1357 1 12.9330901637 3.8372749798 6.17001996078
1369 1 16.1884676204 1.20436921885 3.74020157769
1348 1 16.1847856824 3.69061457627 3.94149447369
1359 2 17.4331123985 2.12698236011 5.56133713033
1371 1 19.386587217 1.39030597141 4.87320987776
1367 1 18.9927579962 3.89475447937 4.87447496967
1368 1 19.6058277776 2.4706902489 7.08848418658
1354 1 23.0871150495 1.97732054974 3.91538002597
2691 1 21.3921699838 3.59525424491 5.81024227776
2706 1 21.6557603944 1.20710622218 5.77425664604
2711 2 23.8977511374 0.204694771061 6.03601034079
2731 1 23.7202343114 2.69175390213 6.21621932026
2695 1 25.2908295118 1.0930660881 4.31746317742
2730 1 26.0416770681 1.86916419309 6.54450134089
2704 1 25.2440024031 3.54609510928 4.40968748109
2733 1 27.5471480432 0.22942178323 4.74215275454
2708 1 27.5401935062 2.6967697466 4.7822042628
2732 1 29.8206575594 1.8560248792 5.19952016309
2729 1 28.3216941036 1.03285850198 6.96366538803
2728 1 28.3505776064 3.49412353145 6.98107595059
2751 1 30.6025257722 0.193060555767 7.3902473182
4055 1 33.5714597354 1.8416548588 3.84771187911
4048 1 34.3780163598 2.63813352214 6.04098096043
4050 1 32.094536518 1.01406340191 5.61998024395
4075 1 34.3593311397 0.169487503116 6.04546614122
4049 1 32.1119677381 3.48008318352 5.63090957814
4052 2 38.1994780794 2.73699719343 4.68265934752
4053 1 35.8744409337 3.44189231627 4.29231682488
4054 2 35.7491454245 0.909761749718 4.2360461374
4074 1 36.6370355737 1.81845848818 6.41960556419
4077 1 38.1413514924 0.179368959353 4.66034042109
4072 1 38.7565730692 3.46911026086 6.94784205709
4073 1 38.8750997614 0.957406490114 6.87121083421
1208 1 42.5016109758 3.29933705276 5.79491575563
4076 1 40.3252586847 1.70097541335 5.09273805486
5247 1 41.1638642108 0.148998972708 7.22006177818
4095 1 40.8632258373 2.59311206514 7.31775494659
392 1 3.28815982443 5.39030111256 3.89955816508
13 1 1.6086246682 4.83623466563 5.76303950696
224 2 2.78157628522 6.58558469046 6.22327180782
200 1 0.307262861151 6.97875276743 5.7481238721
211 1 4.49599544135 4.58879224432 5.79000047136
184 1 4.80476554931 7.16380364366 5.72575255683
192 1 6.88128864867 5.46102928221 5.30054654945
190 1 8.42162261374 7.09305876091 7.03273490579
195 1 9.21388027425 6.29458003007 4.84920044116
213 1 8.44966760912 4.62432465909 7.01887653711
1526 1 11.5224618907 7.13825851266 4.40896180146
1544 1 10.729136179 5.46880205598 6.5968636729
1550 1 11.4819076177 4.65402914862 4.42033176839
1530 1 13.7262289483 5.49853467843 3.94869833572
1549 1 13.010832982 6.30337594528 6.1725606827
1555 2 15.1143978312 4.73480304397 5.60661236457
1528 1 15.2509871286 7.10773993489 5.76374127785
1554 1 17.2508134492 3.96125068897 6.77547089271
1536 1 17.4142041601 5.67368719522 5.08566209215
1539 1 17.2430458447 6.75941637213 7.28786884234
1523 1 20.6253167772 5.28915807243 3.7495513525
1350 1 19.5945693613 4.83546140691 7.04045070509
1522 1 19.4406604931 6.81366298188 5.40353837537
2874 1 21.6179618116 6.13107649383 5.91685725452
2879 1 23.0833095307 6.93325366175 4.06064035431
2873 1 22.9988084106 4.47158869885 4.07284250305
2899 1 23.8412504547 5.1860549128 6.20765859408
2878 1 25.3036498025 5.99358866113 4.39405411383
2898 1 26.1213944838 6.80180522205 6.56570653613
2703 1 26.0855618492 4.33301690103 6.57644590459