ITEM: TIMESTEP
36000
ITEM: NUMBER OF ATOMS
5376
ITEM: BOX BOUNDS pp pp pp
0.0 42.7297273569
0.0 39.5600404449
0.0 37.0050293879
ITEM: ATOMS id type x y z
5216 1 0.565730514066 1.18418864016 1.12573599686
1207 2 1.01802641374 1.64683356154 3.20990531466
4246 1 0.51099279677 3.59455284041 1.54682814244
5 1 4.12915831301 2.01773096087 1.57545978724
8 1 6.31706251679 2.96535435342 1.24272535817
9 2 6.31953101672 0.457796827587 1.20710845112
25 1 5.60124454414 1.20980587805 3.39659267795
4 1 5.46460095426 3.71480903324 3.49433420315
7 1 7.79658369592 2.13369367551 3.01447680904
10 1 10.0869002797 2.94687275228 2.59389486916
11 1 10.0372873603 0.461887221059 2.59141498069
12 1 8.57956346108 1.30226171875 0.826110987791
1347 1 10.8410964252 2.12655189605 0.395685697321
1 1 8.57463396229 3.76371017276 0.837138186135
1349 1 14.5732944144 2.20141094023 1.75347059615
1363 1 12.2659127957 1.29548706717 2.14675118797
1346 1 12.466518842 3.75503664333 2.22909518477
1352 1 16.9639911105 2.8003496381 1.45684769818
1353 1 16.6813727358 0.329146977113 1.12142498615
1540 2 18.2178140619 2.60054702379 3.31325126271
1369 2 15.6613825998 1.03833686032 3.29521434784
1355 1 19.1506877769 1.15859605811 1.56821138398
1513 1 19.8500575278 3.47531214182 2.03788506619
2710 1 21.5399806066 1.04752726948 2.47839503096
2689 1 22.4160825758 3.55021425741 1.86514417164
1490 1 21.182811087 2.24897019122 0.175886537116
2694 2 24.682100507 2.78072404414 2.59978833562
2699 1 26.0206826703 1.0434243821 0.467326797054
2698 1 26.0012258932 3.48854934279 0.605393652166
3868 1 26.8316614918 1.91081501749 2.68699293411
2709 1 24.4683480933 0.343007058308 2.29090219061
2693 1 23.7659402446 1.95456727242 0.529546119345
2697 1 28.2602957369 2.75307822943 0.892827957604
2714 1 29.0619153752 1.10107225217 3.07629559967
2717 1 30.5185319758 1.92483656674 1.30518832786
2718 1 28.2758105623 0.298300289733 0.900844223149
2713 1 29.0383758679 3.57963130249 3.08118827474
4039 1 32.7745572156 1.09688916773 1.72443499846
4038 1 32.7684026047 3.5768964327 1.73795618394
2734 1 31.3092568743 0.26778813553 3.49599441957
2712 1 31.2987977349 2.75319510472 3.50154021867
4060 1 35.0265238882 0.261334566946 2.12813072394
4037 1 35.0276206818 2.7425913777 2.15161946157
4043 1 36.509349272 1.08459484126 0.361796623646
4059 1 37.2863407737 1.9015314449 2.55743317001
4042 1 36.4936337121 3.56659343164 0.373551422882
4041 1 38.7356215899 2.74015948753 0.780869280478
4062 1 38.7652863179 0.234916009102 0.793377407981
4058 1 39.5611216183 1.08416907511 2.97104701846
4057 1 39.5259910545 3.56944158621 2.98027562104
4196 1 40.9514334771 1.91744258927 1.17037175415
4056 1 41.8168163581 0.300201018917 3.40032849211
17 1 41.7661919941 2.80710345863 3.38677090014
193 2 2.17159951046 4.9241365628 2.04841476755
187 1 0.616884812506 6.40833430656 1.23743253186
206 1 1.36686987725 6.5465574795 3.48248232108
173 1 3.697587091 7.00449971241 1.68576252497
194 1 4.25035898367 4.52533082472 1.5107430159
177 1 6.31424198942 5.44287839157 1.24608172427
172 1 5.54462168138 6.28347860004 3.44389468002
176 1 6.17787158058 7.86822476904 1.31504571065
196 1 7.75646960404 4.58389214697 3.04994192491
175 1 7.78966403191 7.06306078141 3.0514267573
179 1 10.0859541645 5.39763977469 2.64247704348
180 1 8.5894954173 6.21505858033 0.875845859111
1532 1 10.8796063954 4.57884828614 0.443935521182
1515 1 10.8532345948 7.04097774946 0.454593203803
178 1 10.0525508929 7.87852680163 2.62770610839
1517 1 14.5935722491 7.16118954684 1.8215762639
1531 1 12.3930889842 6.21263703647 2.2174767509
1538 1 15.0483409233 4.64187896026 1.9503097308
1676 1 13.1930646665 5.39308971111 0.0569567023201
1675 1 13.104292613 7.89120342463 0.0285770072918
1519 1 17.9055560954 4.85823820972 2.9933561547
1521 2 16.7934793029 6.64329669964 1.83885727584
1839 1 18.4242938512 7.16917436555 3.37430060543
1672 1 17.5536772381 4.98562161753 0.533808365329
1520 1 18.6657572249 7.83015609829 0.638334430192
1524 1 19.6315094734 5.76806588542 1.54545432437
2868 1 22.3624862713 6.06101631951 1.9170256228
1680 2 21.0131375533 7.11106014351 0.427702946495
1842 1 20.7023356055 7.83505881524 2.93133576928
2838 1 21.4151512729 4.78812837923 0.0176758442374
2692 1 26.7873923598 4.4098873362 2.70001102152
2867 1 25.9134678497 6.03874566871 0.366369832096
2883 1 26.7790941756 6.85596006676 2.60645278602
2884 1 24.5699177422 5.28257873084 2.28981404546
2861 1 24.5866727977 7.73741265308 2.25901558195
2715 2 23.8389608893 4.54444016198 0.179982723353
2857 1 23.5589938291 7.04584940346 0.0852810567299
2696 1 30.4994152081 4.40369340819 1.3079326642
2882 1 29.023747914 6.05658919798 3.06979515504
2885 1 30.5027612851 6.86560929208 1.29130369826
2886 1 28.2053161234 5.21756139501 0.873632601226
2865 1 28.24349476 7.65843937944 0.84563068647
4207 1 32.7600225212 6.04722830857 1.73093558176
2880 1 31.2456332176 7.70793437482 3.48426713708
2902 1 31.2817897593 5.23237769927 3.50607277425
4205 1 35.0125756483 7.68830144245 2.16546520683
4228 1 35.0148909384 5.22095091331 2.16513205352
4036 1 37.2679846952 4.38306782697 2.57035330422
4211 1 36.5049339319 6.03704744487 0.388787239327
4227 1 37.2660203416 6.84815542939 2.60745995509
4230 1 38.7675477446 5.2076726784 0.797824395656
4209 1 38.7167049836 7.66260866304 0.833748832904
4061 1 41.0529482722 4.41204393627 1.21118888227
4226 1 39.5425621738 6.00981182043 3.02019724304
4397 1 40.9453100077 6.79140728764 1.13600037573
182 1 41.9172752522 7.66516929939 3.04650580119
31 1 41.8160464526 5.25249777655 3.41280136598
4229 1 1.57910394968 8.69326643816 1.95436660698
374 2 0.714497442565 10.9552651263 1.6866964153
499 1 2.35204437642 10.4167447144 0.216318595264
355 1 4.00922556926 9.47894314793 1.79874822152
361 1 5.54194510949 8.73532662177 3.53737392858
345 1 6.27026590804 10.3373270101 1.31705938729
353 1 5.62455735089 11.2464728703 3.52729231443
364 1 7.76669031586 9.52641648173 3.05870898837
169 1 8.51540201761 8.6722236327 0.866075600419
347 1 10.0293234828 10.3506327961 2.6100632645
348 1 8.54291754706 11.1482935238 0.814494374027
1700 1 10.8023123507 9.51823511691 0.428598515217
1514 1 12.3253119141 8.71708131374 2.19344139275
1699 1 12.2762421874 11.1884623657 2.15664688769
1706 1 14.5994580208 9.60136328751 1.75670630951
1516 1 16.3642899195 8.79468519755 3.46706013978
1689 1 16.8713732504 10.3061069141 1.16786243877
1705 2 15.8819641308 11.1646101129 3.48485696848
1688 1 18.1092098896 11.3964946182 3.36020522312
1876 1 19.3510645279 11.732893554 1.19510625581
1848 2 18.6917286363 9.40990340881 2.22537453742
2862 1 22.5415652972 8.68782483308 1.66123099699
1692 1 20.8623200062 10.2888936173 3.25511033735
2010 1 20.5587887475 9.65009995417 0.868562827104
3031 1 22.0467581321 11.5009700598 1.69840710081
2860 1 26.6798473252 9.36025009304 2.63434838521
2866 1 25.9774885721 8.49381097962 0.432079449523
3035 2 26.3688095897 10.8637136821 0.700413649355
3052 1 24.3181246822 10.5042131589 1.87214616598
2864 1 30.5517564183 9.32326444139 1.29062141776
2881 1 28.9680329509 8.54091076687 3.03143097582
3054 1 28.3919989006 10.1036363799 0.87844626526
3050 1 29.0237098827 10.9955539272 3.09218128867
3053 1 30.4756028096 11.8080745225 1.26541834152
4206 1 32.7718743172 8.51286080264 1.72659399863
4375 1 32.7301630411 10.9961358254 1.70281389493
3070 1 31.2578496789 10.177226286 3.48523042475
4396 1 34.967986952 10.1670108943 2.1436793708
4204 1 37.1822591371 9.30230478399 2.58085900731
4210 1 36.4920371554 8.50742742366 0.374618550291
4379 1 36.4886146644 10.9871746628 0.396850191331
4395 1 37.2266739599 11.7919928109 2.63442637315
4398 1 38.6976294249 10.1336214493 0.833673205448
4225 1 39.4703901552 8.37044407024 3.10929182807
4394 1 39.3183004071 10.7759096712 3.09550177882
4208 2 40.7265246605 9.23919234303 1.32935617356
542 1 40.9724065778 11.6116464263 1.32667585361
170 1 1.95860591289 13.2195905058 1.94470806863
523 1 0.136634932814 14.9192272991 1.60902456484
4376 1 3.38025445641 15.3262263777 3.65219376202
530 1 3.91512002168 14.5150559075 1.40909396913
341 2 4.02001388645 11.9658303575 1.67217653767
340 1 5.50598470688 13.7079295135 3.30789680018
344 1 6.3005067057 12.7999746583 1.22901942258
513 1 6.30201239621 15.2612582309 1.19187387762
532 1 7.80598048878 14.4682825117 2.96049947979
343 1 7.8318642521 11.9892211273 2.96603718147
1683 1 10.7971963726 11.988035533 0.391629317389
337 1 8.56663870433 13.628760754 0.796070338359
346 1 10.0902958966 12.8233230622 2.5657829495
515 1 10.0576883063 15.2970992176 2.55852055437
1868 1 10.836160179 14.4620495971 0.382437881224
1685 1 14.5249528381 12.0347235965 1.72216505339
1682 1 12.3519064667 13.6619384938 2.15272664376
1874 1 14.6668632418 14.4989449109 1.7910531439
1857 1 16.9017521744 15.3458966382 1.28604001413
1833 1 16.7008240208 12.7148124277 1.30227033108
1855 2 18.3885216034 13.6430184892 2.34470041708
1684 1 16.2245115174 13.6183871002 3.59915481809
1681 2 22.1332736978 13.8171512372 2.99794699271
3030 1 20.3399749308 12.6351288591 3.21002972549
2016 1 21.5470995194 13.5802268573 0.536489058971
3194 2 20.591737537 15.6887025849 1.04867078653
3051 1 26.7313632464 11.8782938487 2.69632406844
3175 2 23.855739788 12.6222236011 0.611101916377
3028 1 26.699089224 14.2632438085 2.44791199381
3029 1 24.4191042443 13.2836424805 2.62510909356
3034 1 25.9992150734 13.3510404133 0.195878195239
3220 1 24.2181948102 14.8422569479 0.761081707898
3032 1 30.5201830532 14.2916677027 1.26785974695
3033 1 28.2385419882 12.6150720971 0.824294352916
3222 1 28.3251250901 15.067374381 0.778550112711
3049 1 28.9801294634 13.4355714986 3.00551563986
3048 1 31.2290198672 12.6600535366 3.45776148992
4374 1 32.7552276684 13.4682011964 1.70319008883
3238 1 31.2988434797 15.1257384169 3.47071033232
4564 1 35.037697929 15.1168898238 2.133265044
4373 1 34.9974931467 12.6437489819 2.14870216506
4372 1 37.3108070967 14.2398438094 2.59612813612
4378 1 36.5252512362 13.4507876579 0.396260253897
4377 1 38.7805268567 12.5833033459 0.894348287484
4566 1 38.7316220688 15.0883442736 0.779460596537
339 1 40.7911945689 14.055553011 1.22936097106
4393 1 39.5966165911 13.2329551882 3.16682719421
4392 1 42.4175385996 12.9091027008 2.70803386997
349 2 41.4386140767 14.8709847245 3.58067442717
4562 1 39.352517601 15.7320647076 3.01442723736
4703 1 1.90318867311 16.3164521267 1.99372380132
4694 2 1.23816854529 18.5382451907 0.94071289016
698 1 3.67072837598 19.3280061994 1.28016243293
509 1 4.22563244157 16.9465694315 1.67109718654
508 1 5.45943491522 18.6241927403 3.32370902257
512 1 6.2847937176 17.7958928907 1.11589699847
700 1 7.7470143191 19.438212415 2.96704866521
529 1 5.55844548695 16.132683725 3.3775345617
511 1 7.7780328565 16.9653662177 2.93875626576
516 1 8.55534321824 16.1021702698 0.779244168478
505 1 8.54980639118 18.5882358401 0.794835745161
514 1 10.0347880687 17.7784486686 2.55448430835
1851 1 10.8127749901 16.9403350208 0.37087995904
2036 1 10.7820389312 19.4351164378 0.364605823764
1850 1 12.273581821 18.6140940088 2.11723167148
1853 1 14.5308052382 16.9624038391 1.68590579742
1867 1 12.3046220031 16.1213015086 2.14069791858
2042 1 14.5323495195 19.4309198669 1.68017079619
1852 1 15.957070126 18.6238598791 3.50137762584
1873 1 15.9245138043 16.1629427677 3.50075409205
1856 1 16.7551471454 17.8433638957 1.27832171057
2044 2 18.0622119135 16.8358197265 3.0483564453
2023 1 18.3747831103 19.1908218886 3.44659750948
3026 2 18.6823236473 19.3768854962 1.30859325087
1849 1 18.954578413 17.0877169364 0.497030039156
3037 1 22.6313183788 16.2269348912 1.99659865681
3198 1 22.5359336989 19.2004882766 1.47508494019
3209 1 20.470378327 17.8152719683 2.22989840499
2027 1 20.5173299728 19.3374880361 0.073474130044
3214 1 25.1056365739 16.0389689437 2.99118408029
3203 1 26.1878176621 15.9143773854 0.329402230552
3196 1 26.653507199 19.0876850489 2.48919868652
3197 2 24.2700457495 18.2327462684 2.53746402824
3202 2 26.1755577734 18.4309537706 0.0750970062492
3204 1 24.0834335126 17.1459991706 0.276889543952
3219 2 27.1757140882 16.6185990587 2.47681590757
3218 1 29.1501160081 15.8933316171 3.0326427789
3200 1 30.5122899864 19.2310012303 1.31313105246
3201 1 28.3635170281 17.5879705595 0.758876285833
3217 1 28.938540647 18.4201918089 3.04731505844
3221 1 30.5886345163 16.7686760104 1.23188998768
4543 1 32.7845921771 15.9172025164 1.70278493217
4542 2 32.765187053 18.3902877733 1.69963680972
3216 1 31.1930906854 17.6035110587 3.46805371864
4541 1 35.0092254243 17.5966946503 2.13688640687
4547 1 36.5162599325 15.9344816905 0.34829396347
4540 1 37.2295729707 19.2056282073 2.55481169933
4546 1 36.5246154125 18.3998967248 0.366670326693
4563 1 37.2427209033 16.748865894 2.53275676489
4545 1 38.8444133625 17.573142046 0.67529089271
4544 1 41.335947975 19.2593490103 1.18537620562
4565 1 40.9578479892 16.5719842102 1.35497747965
4561 1 39.3986004613 18.2487067298 2.87814706229
4560 2 41.5727145028 18.0831536997 3.25834830407
4750 1 1.28527811607 20.6952210971 1.81732093914
691 1 1.86359808534 23.2248812567 2.08378235894
690 1 3.34917661858 20.3216878186 3.60085728352
689 2 3.54097441637 22.6150348248 3.54444367091
860 1 0.127457598568 22.3354049953 0.491973223355
677 1 3.87041987637 21.8491525404 1.48004273628
680 1 6.28761658018 22.7188186869 1.15774607846
681 1 6.1842170406 20.2152475196 1.21638541393
697 1 5.54720486962 21.0380064611 3.38806170848
676 1 5.67241214903 23.4087542184 3.366163879
679 1 7.75314016069 21.9287717123 2.97219752665
682 1 10.0063114652 22.7608656407 2.56278988311
683 1 10.000663528 20.2710108622 2.55121151327
684 1 8.49175205084 21.0711413417 0.792750484254
673 1 8.53452646935 23.5722869887 0.790769189618
2019 1 10.7557085746 21.9265211786 0.36290242739
2021 1 14.5108342302 21.923562926 1.67676989003
2035 1 12.2506824149 21.1047597441 2.1145613315
2018 1 12.2572571602 23.5940758188 2.11140220677
2025 1 16.7142118292 20.3455626702 1.26805886117
2024 1 16.7534647067 22.7786246037 1.20853919478
2041 1 15.9858747868 21.0858561396 3.46128322672
1854 1 18.2415080095 21.7650950608 2.87582671988
2212 1 19.1630394744 21.4531189347 0.521511113772
2020 1 15.956276895 23.5814457516 3.36668057869
3377 1 20.5922343676 20.3713205845 2.31060742892
3373 1 20.3932555325 22.6785017938 2.25295244847
3363 2 22.6671349451 21.6193326844 2.0830322894
3530 2 20.9926250029 23.5168740455 0.00194206826501
3367 1 24.4880201831 20.4854977983 2.74171535861
3365 1 25.6889211169 23.4958545289 0.797323865137
3371 1 26.1631426022 20.8578289146 0.575041668504
3387 1 26.6317909119 21.7592703254 2.72568712803
3362 1 23.994644546 21.2945677912 0.286056113656
3390 1 28.3079385624 20.0231658527 0.953915378108
3369 1 28.1568795179 22.5668802073 0.948025859776
3389 1 30.4473085336 21.7047052976 1.37182530009
3386 1 28.8671459463 20.8684998634 3.15469696902
3385 1 29.0179475896 23.3736327887 3.05898978214
4711 1 32.7206597884 20.8461081623 1.72107574764
4710 2 32.6470562956 23.1913306341 1.76922086448
3384 1 31.2465356371 22.5303662755 3.49736688695
3406 1 31.194002867 20.077740786 3.50146850747
4709 1 34.9411250809 22.5391520724 2.12723223995
4732 1 34.987655703 20.0734786769 2.12613855375
4715 1 36.494559286 20.8674555949 0.332918583705
4714 1 36.3727146013 23.355871488 0.37548802498
4731 1 37.1415794558 21.6477592879 2.51569434086
4713 1 38.6418717832 22.4894863014 0.812825673209
4734 1 38.8352399042 20.00352845 0.835670268511
4733 1 39.3048723773 20.7214678407 3.08130330986
4729 1 39.72119583 23.1520246243 3.34788207806
675 2 40.702146919 21.6548213392 1.61244808475
4918 1 42.4122511859 22.9148537679 2.7322344185
703 1 41.7778772085 20.6316504435 3.52143311279
686 1 2.38433165222 25.986046017 1.63709432139
878 1 0.198778452584 25.1411714426 1.43243586296
4935 1 1.19467082662 25.2366424883 3.65756699486
866 1 4.09323206211 24.434564649 1.81088015588
845 1 4.60131778189 27.1001696376 1.8783315138
849 1 6.28451066151 25.2205791156 1.27014809504
847 1 7.63095608196 26.9480486848 3.05156548318
848 2 6.56615380918 27.6094180603 0.900918124139
865 1 5.61455247081 25.7182979678 3.67865631296
868 1 7.81818789505 24.4388518489 2.98079972273
851 1 10.0366886685 25.2566549314 2.57264507216
852 1 8.55704905501 26.0572065808 0.829994216871
2204 1 10.774347261 24.425158962 0.35851426345
2187 1 10.8038673931 26.8929656591 0.393290197961
2189 1 14.5843014932 26.878905926 1.69154214274
2203 1 12.2942525522 26.0584025572 2.12565982936
2210 1 14.5203400804 24.4195721997 1.64542347893
2017 1 18.876369641 23.7917449242 0.779720739463
2022 1 18.2727594937 24.3978703105 2.95354239346
2193 1 16.8013950475 25.2556624839 1.20397486497
2209 1 16.0981163568 26.0744023549 3.40242874348
2195 1 18.5355255799 26.8440002824 3.01541802071
2352 1 19.0614951122 26.1553420087 0.79596910134
3534 2 21.1014813749 26.7623050976 1.612166909
2026 1 20.6845913316 24.8471560479 3.07486463169
3540 2 23.6615125537 24.7330838976 0.933068870212
3364 1 26.8299833627 24.2993612252 2.7661605981
3539 1 25.8130999677 26.0128624645 0.478941957507
3555 1 26.8074671884 26.7897169685 2.57973295876
3556 1 24.6173450496 25.3021139273 2.78207201016
3368 1 30.4846505034 24.1580385718 1.25424142061
3554 1 29.0800562069 25.8932471798 3.08022935528
3557 1 30.523225605 26.6187332734 1.22646410412
3558 1 28.2432606226 25.1183378241 1.01485229555
3537 1 28.2598131535 27.5899331362 0.848207288832
4879 1 32.8067848811 25.7432740139 1.58945836207
3552 1 31.2913431096 27.458190495 3.40967474843
3574 1 31.3299358925 24.9941848151 3.39102348777
4877 1 34.9787578698 27.4344421492 2.07639188723
4900 2 35.1748883725 24.9758033261 2.25672206223
4708 1 37.3657999634 24.0698222986 2.55443482946
4883 1 36.3984957761 25.7951394721 0.322055978066
4899 1 37.207036696 26.5731919376 2.50155938169
4881 1 38.6716490934 27.3957635443 0.692704070018
4902 1 38.6150500266 24.93954266 0.646739091035
4712 1 40.746363353 23.9891748473 1.22472778612
4901 1 40.8855470263 26.4260693013 1.09937106696
4898 1 39.3662532729 25.6127707318 2.8495429542
859 1 41.7803663576 27.1737446298 3.20334012908
674 1 41.4884963614 24.8827602727 3.52378354166
1027 1 0.67194517227 27.8120746373 1.03060737903
5207 1 0.4501588063 30.7234711731 1.37437593578
5086 2 0.273825262813 28.983266017 2.83329810838
1003 1 2.91130655901 27.8032618868 0.198623622747
1034 2 3.91599911144 29.4674065007 1.49828231577
1017 1 6.27880509451 30.1772144528 1.27751562863
1033 2 5.51394860012 31.3424878102 3.41708050054
850 1 10.0000186693 27.6945686393 2.60548396461
1036 2 8.03518603262 29.4521064199 2.94658625526
841 1 8.63821235545 28.522228877 0.781160148395
1019 1 10.1094889447 30.1845451448 2.57298670612
1020 1 8.54172828495 30.9786880842 0.841699855588
2372 1 10.8455634189 29.3428589152 0.411976937764
2186 2 12.2988854001 28.5132599036 2.16603631542
2371 1 12.3139838488 30.9831698103 2.16184253669
2378 1 14.5775955787 29.3297997985 1.7361438095
2192 1 16.9020976158 27.6973590967 1.31997833096
2188 1 16.0920378313 28.4833746331 3.5168650543
2377 1 15.9769719683 30.9216594622 3.41445476551
2360 1 16.8262300649 30.1131856192 1.30927460892
2361 1 18.3492267843 29.2404053935 3.03650271072
2191 1 19.3158973916 28.5322790766 0.847252199727
2194 1 18.9833915587 30.9488941369 0.772612696441
2358 1 18.3822175646 31.6355261112 3.10659800128
2363 1 20.5113693807 30.1573829621 2.45389020234
3531 1 22.2313283552 29.1924931659 1.09678203363
2682 1 22.5144312403 31.3784216187 2.80278868165
3533 1 24.606675947 27.8493194096 2.2817195014
3532 1 26.7110478023 29.2555847091 2.65361633426
3538 1 26.0385250733 28.5412582345 0.399085938226
3707 1 25.9222391786 30.9556389465 0.40350487892
3724 1 24.5098046166 30.1957728237 2.19875810615
3536 1 30.4824628734 29.1207028031 1.25170318956
3553 1 29.0107542676 28.36601748 3.03989913412
3722 1 28.9843683025 30.8191591101 3.06611627875
3726 1 28.2244007441 30.0497260184 0.885449392916
3725 1 30.4643745029 31.6041291773 1.27074017987
4878 1 32.7449558099 28.2323885969 1.63143792438
5047 1 32.7359926848 30.7431969065 1.66177120511
3742 1 31.2446547572 29.9467597135 3.43531002884
5068 1 35.0024643331 29.9092848857 2.07154377083
4876 1 37.2311755392 29.0549708464 2.48090602248
4882 1 36.4382148525 28.269409392 0.317866289296
5051 1 36.5032547829 30.7475094438 0.324936459782
5070 1 38.751069738 29.866725945 0.770296317574
5067 1 37.3378018139 31.5157189604 2.50780171173
4880 1 41.0357798705 28.9465492925 1.21274237535
4897 1 39.4120843923 28.0648674764 2.83877513833
5066 2 39.6703667923 30.5032566551 2.99736732416
1010 1 40.843570843 31.476740348 1.09260598426
5048 1 0.442965641448 33.2530130948 1.18937038746
1178 2 0.467179017899 35.4233313819 1.40503649285
1045 2 1.60421848397 32.2026341292 2.69162328853
1013 1 3.912060133 31.9186609858 1.68826633831
1202 2 4.06656763183 34.4510538934 1.68332915194
1016 1 6.21358126678 32.6459135584 1.28353046526
1185 1 6.27015572496 35.1162029733 1.27449529653
1025 1 5.36456951235 33.5318236564 3.48920363868
1204 1 7.70941508473 34.2849302589 3.01565885775
1015 1 7.73518914491 31.8370338141 2.99701268421
2355 1 10.8096257255 31.7946638167 0.411711688801
1009 1 8.49446674582 33.4449306165 0.831257168963
1018 1 9.97984302929 32.6367767102 2.56293247299
1187 1 9.97537878258 35.0929719736 2.56486071764
2540 1 10.7712826509 34.2716803733 0.372340249993
2357 1 14.543741558 31.8245311464 1.75647254815
2354 1 12.2291887878 33.431174338 2.0904823821
2546 1 14.4664681456 34.2847545866 1.69867155445
2688 1 16.910554576 32.6095181124 1.31052575296
2529 1 16.8035441469 35.0312509897 1.43018793028
2527 1 18.2591007154 34.0525930746 3.19228411776
2356 1 15.8337868205 33.4185858569 3.35837725885
2342 2 21.2054741158 31.6804872353 0.518029946578
2673 1 19.5621795855 33.3235546066 1.33812428074
2362 1 20.6076554917 32.7663010484 3.61517456882
2531 1 22.2830945035 33.5729984521 1.83489052433
2532 1 20.7970264937 35.2856702152 2.56773518911
3709 1 23.5424359008 31.7181820257 0.52770039982
3723 2 26.7828810048 31.6966625103 2.4746765134
3700 1 26.749385898 34.1436601781 2.65521120188
3701 1 24.5655990219 32.621783823 2.42082737262
3706 1 25.9401867926 33.3845001538 0.473436937059
3892 1 24.5107332356 34.9471366641 2.38252443174
3697 1 23.7539839783 34.1168927345 0.0155758174304
3704 1 30.4310863071 34.0806038039 1.28886168519
3705 1 28.2305782703 32.5280382775 0.846401542488
3721 1 28.9452295242 33.2501861574 3.08736442307
3894 1 28.1089495587 34.9925016421 0.862917734056
5046 1 32.7385308788 33.2269305241 1.6849575724
3910 1 31.2865072119 34.8769848634 3.47057273229
3720 1 31.2345673589 32.4132355419 3.46320982212
5045 1 35.0353694167 32.378436791 2.09839330222
5236 1 35.0472802103 34.8549842154 2.09590175072
5044 1 37.3089578015 33.9884200025 2.49944895194
5050 1 36.4593878846 33.2219354322 0.31007378673
5049 2 38.6608080518 32.4242485167 0.627897682807
5238 1 38.7307837697 34.8493853466 0.721684651078
5065 1 39.5400495065 33.0839356138 2.88965072952
5237 1 40.9156025562 33.9667852896 1.14546298573
5254 1 41.8057673306 34.786920204 3.29513541534
5064 1 41.7857502234 32.2942910065 3.0968704068
1339 2 1.97774208024 37.9244195399 2.50347219459
20 1 0.481147454889 37.943897379 0.627465703511
1323 1 2.73713719044 37.7018136382 0.00954242010083
26 1 3.98032506112 39.2057695745 1.77386509913
1181 1 3.99088831203 36.7592189859 1.80926547654
1201 1 5.50033766912 35.9489603167 3.49223769326
1184 1 6.26827726434 37.5581670265 1.26018499975
1180 1 5.62020081622 38.3428120488 3.44109862839
1183 1 7.75777719614 36.7398417483 3.01960480174
28 1 7.81040953607 39.2112891342 3.01484459848
1188 1 8.52518857969 35.9155673884 0.825082042833
1177 1 8.54508211811 38.3820316584 0.833484679241
1186 1 10.0199297628 37.5381101292 2.59856420958
2523 1 10.8027171963 36.7311855542 0.391007666118
1364 1 10.8112320193 39.2010318109 0.403546486689
1370 1 14.4686921689 39.1591059266 1.68389081556
2539 1 12.2583088725 35.8912392837 2.14800325671
2522 1 12.265964113 38.3541602254 2.17501560725
2525 1 14.5282356896 36.7222159165 1.75834165566
2521 1 19.0506377624 35.7390391846 1.11160031801
1372 1 18.4241026141 36.4712808314 3.36187401183
2528 1 16.7852395618 37.419537278 1.26841633052
2716 1 18.9778378396 38.2572079358 0.478777626177
2545 1 15.9613448255 35.8128243379 3.54733602831
2524 1 15.9411468704 38.206346702 3.41266184601
1351 2 18.150357449 38.7635225696 2.55198961624
3702 1 22.7910221805 36.0392626574 1.29789418838
2530 1 20.4672782355 37.9236808178 2.34897660586
3865 2 22.6160165366 38.3936312683 1.91067702436
2869 1 21.2271542613 39.3791462265 0.362774148653
3013 1 21.1888261116 37.0710480589 0.104123720904
3875 1 25.4794781948 35.874633184 0.386870906716
3869 1 24.6621304055 37.4540306257 2.20954325645
3874 1 26.1471339164 38.2311900008 0.394624639311
3891 1 26.7803143352 36.5516055866 2.60966281704
3885 1 26.7706966165 39.0287665082 2.62003662277
2700 1 23.8376464646 38.4914057691 0.0356633161346
3890 1 29.0216368419 35.7115349963 3.07731865575
3872 1 30.5137610808 39.0098555769 1.31057733468
3873 2 28.4029426731 37.3777176391 1.0130929072
3889 1 29.0448884183 38.2025902052 3.12096463436
3893 1 30.5400212291 36.5301260584 1.30372684509
5215 1 32.7780743901 35.696112769 1.69576496772
5214 1 32.7750854509 38.1749283468 1.7087572124
3888 1 31.3165669149 37.3519972919 3.49457991922
5219 1 36.5055511384 35.6943539027 0.304585847861
5213 1 35.0417373766 37.3341094207 2.10810796077
5212 1 37.2661996884 38.9787407703 2.53247051152
5218 1 36.5062905796 38.166360263 0.332908097684
5235 1 37.3074926815 36.4786918541 2.51619242323
5217 1 38.7465978215 37.294753403 0.740568535591
5234 1 39.566412793 35.608624623 2.86446835257
4078 1 41.0614504331 38.9868691359 1.29612066986
5233 1 39.4703580109 38.1480631756 2.93927276746
1179 1 41.0647494661 36.4924995759 1.0210875726
5232 2 41.479763051 37.3025857205 3.28245728055
186 2 3.29265321809 3.50673416633 4.6935838957
18 2 2.94886316596 0.482276996959 5.35736146424
37 1 2.32170358696 2.54265476067 6.46028805569
14 1 1.11548780781 3.93728653977 4.11424949753
16 1 4.80102400303 2.02277639703 5.72140251126
23 1 7.00201885411 2.90006189903 5.22495860455
24 1 7.01218073894 0.424453815357 5.20942119389
22 1 8.51590269897 2.05477441617 6.97937308008
27 1 9.25110757347 1.26555442638 4.7686642126
1375 1 10.7901854007 2.89007992372 6.54599517602
1376 1 10.6912582801 0.398985321623 6.55314189658
6 1 9.27059755744 3.73697307192 4.79885686104
1358 1 11.540281851 2.08693574251 4.33342561097
1361 1 13.895412868 2.83120564492 4.06707921526
1362 1 13.6379336811 0.314212647626 3.87628111301
1381 2 12.7933303902 1.15051612707 6.04688424748
1357 1 13.0955274107 3.71503569591 6.19875904879
1360 2 15.5616724611 2.46876241728 6.07996972781
1348 1 16.1907459135 3.56518767075 3.99934168213
1359 2 17.9231488893 0.587271906325 5.71282702597
1554 1 17.3495763442 3.68254505751 6.78417881947
1368 1 19.4322068602 2.3774855158 6.9322057795
2863 2 21.3219622789 3.21364894685 3.75772683716
1371 1 19.8768641854 1.68626708467 4.55617735268
2691 1 21.4684606618 3.51923799964 5.99980380325
2706 1 21.5820784933 0.986811259521 6.17460589485
1354 1 23.0911260273 1.93887110723 4.21114363651
2711 1 23.8655622461 0.304715391893 6.27431352429
2731 1 23.8373361304 2.779835675 6.33451110232
2695 1 25.3174356595 1.11869153758 4.47824298428
2730 1 26.1170160958 1.96922874064 6.62960229859
2704 1 25.3454585937 3.6311425043 4.57052802754
2733 1 27.5790651112 0.279835741631 4.83121778547
2708 1 27.6111233001 2.76499708042 4.88226191405
2732 1 29.8418570781 1.92574211405 5.27245287305
2729 1 28.3613653556 1.11019078648 7.03602137303
2728 1 28.3472875238 3.59201723216 7.06752402113
4055 1 33.555771243 1.92158957482 3.91899951116
4048 1 34.3128710633 2.7590200003 6.11622161969
4050 1 32.0869799252 1.09605940597 5.68668388883
4075 1 34.3395720597 0.258143345871 6.08810612364
4049 1 32.0622847345 3.58759233377 5.70326333902
4052 1 38.0329890405 2.73724878081 4.74916423266
4053 1 35.7839701386 3.57686358569 4.35205092839
4054 1 35.8160469888 1.07957339887 4.32354831083
4074 1 36.569057238 1.90374443354 6.51877685327
4077 1 38.0926327923 0.231409678881 4.71672531194
4072 1 38.7531538273 3.59080622115 6.95725858638
4073 1 38.8528939556 1.08334931039 6.8924596145
32 1 42.6336472324 1.60748702464 5.38265166298
4076 1 40.2827934075 1.98587340854 5.13032992602
5247 1 41.1882066328 0.411734945842 7.26385379095
4095 1 40.9286222743 2.84861350128 7.36538409653
392 1 3.44515293661 5.61077087558 3.95574004271
13 1 2.09655949596 5.20073367504 6.00090160785
224 2 2.10921637787 7.16622018567 7.11700589378
211 1 4.66787536678 4.58741636509 6.03364176649
184 1 4.41537501538 7.02830610348 5.81345725016
192 1 6.88598490696 5.36101341223 5.26159442786
191 1 6.90372719214 7.81100968067 5.27487082056
190 1 8.40251725671 7.01620715154 7.01668883119
195 1 9.22505924779 6.20288479198 4.82635926565
213 1 8.46599545347 4.55159582183 6.98463541432
1526 1 11.5255593301 7.03512050294 4.37487251106
1544 1 10.7385738993 5.36592376613 6.57290509545
1550 1 11.5699952573 4.53428192053 4.41349766448
1543 1 10.7077049577 7.85107429408 6.56599396366
1530 1 13.8236754214 5.3258122512 3.99366010642
1549 1 12.9729771561 6.22631563268 6.1381008225
1555 1 15.2836364613 4.80752765921 5.88730823423
1528 1 15.1515377039 7.24830909835 5.78519103088
1537 1 15.9874836871 6.26058625276 3.85624400768
1367 1 19.1771357436 4.02385495229 4.94651331894
1536 1 17.596973798 5.66040909006 5.43372039611
1523 1 20.7422602021 5.4413696939 3.7073413223
1350 1 19.731421561 4.81069389749 7.24587072042
1522 1 19.6756264848 6.93831468934 5.34832925033
2874 1 21.7397268026 6.00815563143 5.91761650763
2879 1 22.9886119017 6.96734192058 3.98471429569
2873 1 23.1389291672 4.52258174292 4.08711797568
2899 1 23.8957866389 5.24198292973 6.23512692211
2878 1 25.2919106678 6.09584918755 4.43858029585
2898 1 26.0386974699 6.91049772577 6.63043308297
2703 1 26.1225523998 4.45277392521 6.67760735581
2872 1 23.7393054948 7.68947825046 6.21127861735
2901 1 27.5455923994 5.250625232 4.85748441831
2707 1 29.8046738834 4.41107217913 5.27507958748
2900 1 29.7843413392 6.88967124955 5.26689956942
2897 1 28.3049193056 6.07334791444 7.0476565158