ITEM: TIMESTEP
2000
ITEM: NUMBER OF ATOMS
5376
ITEM: BOX BOUNDS pp pp pp
0.0 42.7297273569
0.0 39.5600404449
0.0 37.0050293879
ITEM: ATOMS id type x y z
17 1 1.64917967637 3.32680841958 2.36907401618
163 1 2.11534918278 2.05377964961 0.498480038478
194 2 3.79351232107 3.69568957698 1.71308847699
38 1 0.145280692161 1.15304294587 2.11907598039
5 1 4.0599087307 1.52628140135 1.75604227534
8 1 6.28514044092 2.66856814541 1.22393525635
9 1 6.41543050428 0.220566262092 1.23016492009
25 1 5.66859861827 0.99998623282 3.43832140683
4 1 5.5409509398 3.58500887901 3.32122935539
7 1 7.84080841712 1.96435912982 2.92005198691
10 1 10.0752964176 2.82754874709 2.42870448263
11 1 10.1139991054 0.345494523246 2.46185469604
12 1 8.61918223346 1.13350597639 0.730156361094
1347 1 10.8550175811 1.9841476422 0.226494204579
1 1 8.50908590857 3.60836239401 0.720706414228
1349 1 14.4751783992 2.08476493801 1.49551402568
1363 1 12.3202998073 1.17973707455 1.96788624706
1346 1 12.328491606 3.67692119753 1.94014798301
1352 2 16.587497761 2.61699090179 0.991468775971
1353 1 16.6561984479 0.188692865043 1.06688554488
1369 1 16.0434969981 1.26705454041 3.20439932881
1540 1 18.3195486635 1.99576664117 2.60369816786
1348 1 16.0082432293 3.78524985586 3.13812931592
1345 1 18.7861378573 3.44044794887 0.21995700872
2710 1 22.8372455358 1.63519797485 1.80471920146
1355 1 20.4841015291 0.400548122825 3.15417670863
2863 1 20.4861855163 2.44343336812 1.59069906298
2716 1 21.3209057645 0.404982143666 0.550451709182
2694 2 24.5657913357 2.96577362398 2.45121273432
2699 1 25.6751406672 1.29351640875 0.646630901905
2698 1 25.8375967969 3.82188555473 0.614812327539
3868 1 26.5945730109 2.01157312766 2.89811749749
2709 1 24.5474423715 0.269391786888 2.59241426687
2697 1 28.0729195343 2.85948569508 1.05561608425
2714 1 28.9379493072 1.21363825936 3.19412874506
2717 1 30.3975675568 2.02221933449 1.44715440887
2718 1 28.0925799366 0.421314034332 1.01274747197
2713 1 28.9433934127 3.690037943 3.20435892002
4039 1 32.6880246331 1.18117802484 1.88875391194
4038 1 32.6975983727 3.65158222939 1.87679916523
2734 1 31.1985569432 0.390527692457 3.63013508798
4044 1 34.1653061277 1.98647910448 0.130606381581
2712 1 31.226807561 2.8522922164 3.63410079166
4060 1 34.9438169851 0.328749074875 2.29640127056
4037 1 34.9779275758 2.79704595139 2.30587544246
4043 1 36.448946454 1.16777766417 0.556371175087
4059 1 37.2698852956 1.98311780196 2.72821743375
4042 1 36.4383104026 3.64595873966 0.546806537482
4041 1 38.6848285785 2.86941084512 0.968004150854
4062 1 38.758024575 0.377936801039 0.942975704494
19 1 42.723309368 3.25306594328 0.705297597409
4056 1 41.9075676304 2.97496622442 3.34714252092
4061 2 40.8366942189 2.09822537647 1.24245257131
4058 1 39.6286325251 1.1930065975 3.11183405881
4057 1 39.5659784657 3.67567228333 3.17152423252
187 1 0.516500179612 5.45046449949 1.85032406867
331 1 2.15982156372 6.85636189367 0.85702349973
193 1 3.05429829632 5.31255711226 3.42216938952
185 1 3.11726394739 7.80492551143 3.65186583843
173 2 4.21437538323 6.90615537329 1.68922662
177 1 6.08057534851 5.19623496806 1.1956300294
172 1 5.50341557231 6.16867455391 3.44488810272
175 1 7.71650288109 6.94491013858 2.8914882494
196 1 7.72971660789 4.46755006876 2.87581180953
176 1 6.18648126059 7.7828719828 1.1410851316
179 1 9.97454741174 5.29453872914 2.43554562144
180 1 8.38873691619 6.08413758754 0.715551534558
1532 1 10.7661514255 4.4685968273 0.233957399748
1515 1 10.6730495083 6.92642216832 0.255625726548
178 1 9.93284116124 7.7685564528 2.47325928304
1517 2 14.2232045037 7.02715176459 1.56720951336
1531 1 12.1793532574 6.13303859681 2.01572310054
1538 1 14.5930802905 4.59349934776 1.45252749585
1530 1 13.8568538747 5.42889739625 3.6656477587
1537 1 16.1398531323 6.32628801705 3.04458587549
1521 1 17.2013381408 5.18931538002 0.773470073033
1519 2 18.1122295557 4.53406048344 2.76457121851
1839 1 18.7075352339 6.72019196176 2.76901000412
1520 2 17.3315272183 7.71010306653 0.980742421509
1524 1 20.0517926283 5.15338158212 1.37901564889
2879 1 21.3120724865 6.02527149978 3.276918972
2689 1 22.1886748543 4.17866082669 1.91454447491
2868 1 22.167563596 7.09329208089 1.49444488541
2715 2 23.7979095527 5.2626027153 0.42694974345
2692 1 26.6601141917 4.54961362311 2.81960509806
2867 1 25.8396889344 6.28450569081 0.610650119436
2883 1 26.6972024294 7.00664985236 2.7967600514
2884 1 24.2808346635 5.48851381598 2.57255198051
2861 1 24.464706678 7.90298724237 2.42162520851
2696 1 30.4053020953 4.49558649448 1.44522056892
2882 1 28.9763655715 6.15801586837 3.20326182225
2885 1 30.4352657989 6.96303896243 1.43656883583
2886 1 28.1003784982 5.33658015659 1.01500552719
2865 1 28.161618378 7.80834933012 1.00019200027
4207 1 32.7124760756 6.12203697973 1.86951055616
4212 1 34.1928275517 6.93152528495 0.107766532594
4033 1 34.1709411593 4.46395205832 0.115147725072
2880 1 31.2582957826 7.78132445492 3.63206944248
2902 1 31.2501558326 5.31557660549 3.63552714792
4228 1 34.9884995194 5.28050753033 2.29728829229
4205 1 34.9814469844 7.75625408061 2.28947186827
4036 1 37.2701290694 4.46221514845 2.72875881356
4211 1 36.4619250507 6.11459558135 0.530122881326
4227 1 37.2460053964 6.93731632402 2.71460513471
4230 1 38.71779868 5.32590316952 0.961007261737
4209 1 38.7880058264 7.75459622316 0.955922389927
4040 1 40.9235042647 4.56529192592 1.38267060973
4226 1 39.4881878835 6.14789283125 3.16028542317
4397 1 41.0974085116 6.92624363518 1.45922202189
4246 2 41.6402623816 5.51612158184 3.57887446779
4229 1 0.771208962039 8.51931030798 1.78384303354
500 2 2.06290392797 10.6457842027 0.72574611812
355 1 3.66120887445 9.27476590899 1.58053654426
345 1 5.96701963343 10.2415983038 1.18445846391
361 1 5.35934607444 8.64867033457 3.31884132416
353 1 5.31213256172 11.0825040547 3.36559895128
364 1 7.5975340232 9.42283213131 2.89511028879
169 1 8.40200568602 8.57474251608 0.732571430572
347 1 9.87575408085 10.2387434531 2.49999129877
348 1 8.32321381492 11.0306367253 0.761337386926
1700 1 10.6592320974 9.39826706143 0.311442101821
1683 1 10.6150974013 11.8691437708 0.33483330282
1514 1 12.1554177321 8.615029157 2.06883484192
1699 1 12.1315184822 11.0839050075 2.11298566571
1706 1 14.3382622934 9.52861332199 1.69569355566
1689 1 16.6186283988 10.29092666 1.26945771321
1705 1 15.9124650887 11.2008629562 3.45622221083
1708 1 18.1364305168 9.39306182725 2.75299695022
1838 1 18.9662467036 11.2684726128 0.648609967132
1516 2 15.8790198574 8.90496434681 3.54325154114
1842 1 19.7253910963 8.70381413664 1.17001416679
2862 1 22.2389302397 9.428878469 2.31112734512
1692 1 20.288439028 10.8248652558 2.79239070233
3031 1 21.1966444513 10.5461586003 0.523062006011
1691 1 20.3642590101 8.43264370661 3.5547652031
2857 1 23.5397542802 8.8480792037 0.28829557974
2860 1 26.7694260311 9.48441071915 2.7503982223
2866 1 25.920310439 8.72525457528 0.580085793403
3035 1 25.8892917673 11.2177278113 0.570129988408
3052 1 24.4810409456 10.3030329646 2.32897333429
3036 1 23.3824253861 11.244138301 0.0814724132207
2864 1 30.455826222 9.43903065293 1.4252964263
2881 1 29.0061245716 8.62685743497 3.19022200272
3054 1 28.1895404592 10.2957069423 0.975439824586
3050 1 29.0205288572 11.1113379622 3.17378358898
4201 1 34.2121381651 9.39571804055 0.113272208776
4206 1 32.7172858744 8.59389305114 1.8649934111
4375 1 32.7242567925 11.0697791485 1.86510868314
3070 1 31.2529470892 10.2603532407 3.62457361384
4396 1 34.9692593683 10.2331992293 2.29053361527
4204 1 37.2006417516 9.40477404028 2.70880804325
4210 1 36.4931456185 8.56876453571 0.532939901488
4379 1 36.4874855087 11.0288727632 0.538725428634
4398 1 38.7861590704 10.1957034935 0.970333482526
4224 1 41.7067164008 8.10102476157 3.59279751598
4225 1 39.4091074342 8.56962828478 3.13542625265
4394 2 39.272518186 11.0000954325 3.17733474654
4208 1 41.0949709928 9.31610924598 1.39721678889
374 2 42.5226234925 10.5869628338 2.97726818746
542 1 40.9707132169 11.7548541316 1.47925750419
170 1 0.638311834158 12.2546650858 1.59470885798
341 1 3.5206996409 12.1000993847 2.00735676513
4582 1 1.4813247326 14.171711198 2.49762414284
530 1 3.82498108011 14.4401187045 1.69353449195
668 1 2.32454746083 15.399219663 0.0605965786241
499 1 2.25684765979 13.0069179397 -0.000863116832404
343 1 7.57602225633 11.8861293899 2.91525093573
340 2 5.48236643057 13.5582573104 3.23011124767
344 1 5.99758626968 12.6681337058 1.17596948388
513 1 6.09178700583 15.1741761049 1.15147248395
532 1 7.62846136924 14.3734896636 2.90248008625
337 1 8.33897012814 13.5001303755 0.734181158193
346 1 9.84933965179 12.7115505989 2.51385908601
515 1 9.85821782318 15.1896159725 2.48598801078
1868 1 10.6116902815 14.3491307524 0.313216708948
1685 1 14.3635534652 11.9484570788 1.70320034399
1682 1 12.1019296729 13.5561789204 2.09727385852
1874 1 14.3568417888 14.3951115863 1.71081954799
1688 1 18.099470914 12.0432310247 2.88678430921
1684 1 15.9575959096 13.6286894183 3.49189743653
1876 2 18.8022591108 13.7821509179 1.25281947596
1857 1 16.5966402623 15.1462658378 1.35217156871
1833 1 16.5701541821 12.7320603479 1.246763485
1855 1 18.2505032077 15.5185102335 3.22153461771
3030 1 22.2682582876 12.1726206191 2.06310301562
1681 1 20.4369269893 13.4462252472 3.18275923215
3194 2 21.9950134491 14.7849747928 2.04248839673
2016 1 21.1303066718 13.1678313363 0.348836044563
3051 1 26.778459181 11.9495109861 2.76028902302
3028 1 26.7081657679 14.4397132364 2.80375487274
3029 1 24.5626485075 12.6685039518 2.44933208506
3034 1 26.1313463208 13.7099432773 0.605952478777
3220 1 24.4318242238 15.2046291625 2.18051663247
3025 2 23.9643572712 13.3675629541 0.338222356529
3053 1 30.4888123349 11.9138205466 1.42172167252
3032 1 30.4885004302 14.3935568616 1.43475223097
3033 1 28.2585224575 12.7548578335 0.995151836128
3222 1 28.2526137008 15.2412529159 1.02352769214
3049 1 28.9861270993 13.5957602318 3.19342180334
4380 1 34.2228486508 11.8699232355 0.11963343803
4374 1 32.7258827777 13.5507249064 1.8713105076
4369 1 34.2396870637 14.3479505541 0.128833814347
3048 1 31.2287512748 12.7457659873 3.62824301048
3238 1 31.2402323013 15.2307537357 3.63597588168
4373 1 34.9631088509 12.7102942598 2.29902361183
4395 1 37.1781720613 11.8775986846 2.70265478438
4564 1 35.0123749317 15.180105553 2.30336908717
4372 1 37.2929812174 14.3335439218 2.72824743243
4378 1 36.5055114049 13.5035312411 0.571743775691
4377 1 38.7751359637 12.6670292196 1.01236334921
4566 1 38.8865448513 15.1149822721 0.993941737071
339 1 41.2311766753 14.1852047071 1.52979275484
4393 1 39.591595408 13.4574131636 3.17687569959
349 1 41.8830704627 15.2035093019 3.67481790252
4392 1 42.0255216623 12.9004103244 3.56850255009
523 2 0.449145658127 16.0793513813 1.80233686414
4703 1 0.856430185851 18.4670754235 1.84132699749
698 1 3.76245585146 19.2971136747 1.55827553629
509 2 4.01354600206 16.9226214977 1.39601161592
529 1 5.35021362645 16.0463658592 3.304534594
508 1 5.4185721094 18.5052605574 3.2586639186
512 1 6.17267396524 17.6635343198 1.08681013219
511 1 7.60768330061 16.8359696587 2.88189808989
700 1 7.67521855183 19.3154754944 2.86578162876
516 1 8.36349122936 15.9904011908 0.710529108578
505 1 8.41797826316 18.476928761 0.67459562682
514 1 9.86047661419 17.6749538802 2.45404689232
1851 1 10.625986064 16.8324470563 0.282572327555
2036 1 10.6950856621 19.3150809974 0.259565592937
1850 1 12.1146069573 18.5112554364 2.05607721295
1853 1 14.355071665 16.8804231905 1.67745024701
1867 1 12.1076143205 16.0356349392 2.04538797202
2042 1 14.3597733173 19.3399696292 1.66392515923
1852 2 15.7198238959 18.4433853869 3.37764399575
1873 1 15.8103046323 16.087671124 3.43571503828
1856 1 16.7434340364 17.5293302142 1.3694193953
1849 1 18.7581291142 16.2553397322 1.02062666931
2044 1 18.4162214906 18.2071024719 3.21404730113
2023 1 18.7963908459 19.0029858142 0.984874277796
3037 1 20.619555035 16.3487001781 3.01922052651
3198 1 22.409558498 18.4069489656 1.88015919728
3026 2 20.6916577208 17.2826342206 0.775148982326
2027 1 20.9607812504 19.5265294195 0.368488184721
3199 1 23.0313732174 16.6455877502 3.65612806947
3203 1 26.0987300722 16.20234255 0.596286000394
3196 1 26.7268672801 19.3789101297 2.74773618591
3197 1 24.5970648931 17.7261981349 2.21696844125
3202 1 25.9520797273 18.6185230167 0.479891537242
3219 1 26.7635088953 16.9123701525 2.78191724075
3204 2 23.8778785683 16.9479859931 0.0987504722244
3218 1 29.0015227114 16.0704616368 3.20963538605
3200 1 30.501282257 19.3409922353 1.44965316829
3201 1 28.2305195477 17.7302696712 0.996150224282
3217 1 28.9870756658 18.5369691905 3.21332742506
3221 1 30.4908503239 16.8728410047 1.44075517664
4543 1 32.7478287999 16.0271148482 1.87609223133
4542 1 32.7513788659 18.4959321135 1.88817861564
4548 1 34.2732794847 16.822284989 0.124160991295
3216 1 31.2351274346 17.6938372732 3.63374505086
4537 1 34.2576019248 19.2986096254 0.115777595138
4541 1 35.0119343987 17.6514752628 2.31256250156
4547 1 36.5590844643 15.9736374494 0.559099847402
4540 1 37.2598414326 19.2853698253 2.73534834785
4546 1 36.5289786188 18.4540564197 0.547940767909
4563 1 37.2843534525 16.8032501419 2.73085488574
4545 1 38.806359875 17.6023974167 0.971432027547
4562 1 39.5542208561 15.9270238497 3.17642128409
4544 1 41.0549352013 19.1930198606 1.36830488711
4565 1 41.0420371773 16.7386874704 1.45696047105
4561 1 39.5210509713 18.4359821082 3.14365489999
4560 1 41.7917982356 17.7275915392 3.62635608907
4750 1 1.55192567756 20.8155115739 1.90583116252
691 1 1.26293835519 23.2514235079 1.84703192893
677 1 3.82225837776 21.7858019407 1.53671126829
690 1 3.19733028535 20.2545398212 3.74800493525
860 1 -0.040521025368 21.8838045411 0.0658780704987
680 1 6.1560811671 22.5791961371 1.13834704897
681 1 6.12410676072 20.1165079049 1.09476808573
697 1 5.42571051886 20.9732469338 3.26157570153
676 1 5.45506354399 23.4268699942 3.32117628182
679 1 7.69561388067 21.7829845569 2.87599706018
682 1 9.9555803126 22.6130683634 2.45842398303
683 1 9.95565628269 20.1363175313 2.46922727963
684 1 8.43609594262 20.9366787687 0.688950711855
673 1 8.44001280951 23.4037681422 0.697593455126
2019 1 10.7272211933 21.7764240116 0.269784781299
2021 1 14.5528633278 21.7939476539 1.65487147905
2035 1 12.2334736151 20.9813331437 2.05050600903
2018 1 12.2179118478 23.450096256 2.04868282074
2025 1 16.6694972809 19.9519515243 1.49094184473
2024 1 16.8900935945 22.4111801897 1.14856520511
2041 1 16.0059242061 20.9786961062 3.50334250107
1854 1 18.4322938258 20.920174796 2.95427576425
2020 2 15.9902710493 23.4244073429 3.30520678396
2022 1 18.5919836556 23.7156798155 1.98768247947
1858 1 20.5433278891 20.0540558625 2.74071062741
2212 1 19.7602560992 21.7491522733 1.00717193998
3367 1 22.3057288019 21.0236977692 1.6984611651
3541 1 22.1366401758 23.4278669147 1.6259819195
2043 1 20.5620206316 22.4522909742 3.25361918306
3388 1 24.4509533324 20.1386414 2.21644642771
3365 1 24.4202747095 22.6084412911 2.38464828514
3371 1 26.012790547 21.0257061369 0.584824443755
3387 1 26.7419588369 21.859515503 2.75363271998
3370 1 26.0755429025 23.4162511951 0.683599857135
3362 1 23.8164050688 21.911037358 0.125479889873
3390 1 28.2547825911 20.1885970174 1.00783252534
3369 1 28.2885579459 22.6508077012 0.99040573397
3389 1 30.5114561404 21.8089682004 1.42902639019
3386 1 28.9878895456 21.0023921995 3.21237491115
3385 1 28.9722453798 23.4718428369 3.20669379009
4711 1 32.7480124202 20.9650485948 1.87180431312
4716 1 34.2478735771 21.772742954 0.0837158696885
4710 1 32.7228008089 23.4428125859 1.8423394782
3384 1 31.2286635949 22.6287831526 3.63539923177
3406 1 31.2389441762 20.1609522966 3.64880054568
4709 1 34.9642934811 22.6040468831 2.28277931301
4732 1 34.9954123462 20.1232337153 2.3119993784
4715 1 36.5059230644 20.9320140382 0.542967422053
4714 1 36.4644647133 23.393452283 0.50744121214
4731 1 37.1905727633 21.7655603377 2.74080796969
4713 1 38.6568395655 22.5904379484 0.9746095079
4734 1 38.7644507532 20.0804444487 0.967908047375
4733 1 39.4438406772 20.9052556706 3.17807445934
4729 1 39.4181922831 23.4303847347 3.10619456892
675 2 40.725658179 21.7227808692 1.46472254723
4918 1 41.7116650437 22.7228320556 3.40725205021
703 1 41.8043539664 20.2421534135 3.35134605639
878 1 0.476269457982 25.5311228811 1.92027899751
686 1 3.13898035836 27.5106997888 3.68780983951
1004 1 2.42605564268 25.1384108792 0.0645426934159
866 1 3.86645219335 24.2061874673 1.62593008589
1027 2 0.370266302673 27.7188059065 1.35589292446
845 2 3.99665215543 26.7493366014 1.39835381549
849 1 6.15490233641 25.0458477954 1.08169312251
865 1 5.52635335771 25.9311145906 3.25999564359
848 1 6.20254291779 27.5246753449 1.08911994358
868 1 7.67051852965 24.2692815794 2.86901722951
847 1 7.72219639069 26.7419943474 2.8578756565
851 1 9.93181344187 25.0874278996 2.44665529237
852 1 8.42844763454 25.8790379748 0.680742080654
2204 1 10.7133422591 24.2398382413 0.273963939993
2187 1 10.6906798134 26.7110412831 0.262241193122
850 1 9.97187971291 27.5658561501 2.43682516384
2189 1 14.4672583184 26.7487239781 1.59147654758
2203 1 12.1895062036 25.9269072778 2.00708323276
2210 1 14.4708388609 24.245439228 1.62706080019
2193 1 16.6730290793 25.0567587608 1.28780031083
2209 1 15.7989879939 25.9616568944 3.38955655405
2211 1 18.1542469938 26.5406917111 3.14193091293
2352 2 18.9320689234 25.9758580194 1.1155721187
2192 1 16.7988297858 27.5743831229 1.29981490164
2017 1 20.3079771452 24.1907539779 0.215095254688
2195 1 20.5997439756 24.9744423337 2.74697853741
3366 1 22.5331496033 26.2808557781 2.72900643835
3534 1 20.3889157292 27.3695173066 2.82693120561
3364 1 26.7180066881 24.3218656922 2.82458349085
3539 1 25.8697225925 25.9220681774 0.469554880225
3555 1 26.6587307221 26.7547361577 2.73694720379
3556 1 24.4850362978 25.0419492132 2.35571713681
3540 1 23.4986980369 26.7339890591 0.466625882207
3533 1 24.4659038919 27.6614929471 2.37541936132
3361 2 23.9451580911 24.2095112761 0.286458488942
3368 1 30.4659679743 24.2845705662 1.4117708391
3554 1 28.9492574357 25.9406986126 3.18581508823
3557 1 30.4706199639 26.7481299105 1.3976857509
3558 1 28.1801865896 25.1220019739 0.991274734752
3537 1 28.2081248136 27.574447486 0.977506178208
4879 1 32.7283917663 25.9138952904 1.82078086001
3552 1 31.2452814418 27.5782683933 3.58317142582
3574 1 31.2220057377 25.1045241439 3.60822740274
4884 1 34.2438860428 26.7177507089 0.0480634284673
4705 1 34.2251977496 24.239787772 0.0502226244693
4900 1 34.9608496554 25.0707718881 2.26478176412
4877 1 35.0422829655 27.5417654776 2.21798536669
4708 1 37.2111830861 24.2624700509 2.6696777803
4883 2 36.4053722171 25.8002640824 0.487684338517
4899 1 37.285790386 26.720822302 2.6284564088
4902 1 38.7913467483 25.0537277481 0.955190211778
4881 2 38.8924782535 27.572154237 0.890458727549
4712 1 41.1367012793 24.2236108052 1.50334379241
4901 1 40.9993815853 26.6930881497 1.41671847388
4898 1 39.5035846313 25.8950350805 3.1138865
1046 1 1.47578182198 29.5664334393 1.83751513891
1013 1 3.66382273268 31.4857283494 1.52312134699
1026 2 3.18749340634 29.8975025154 3.47311119556
1034 1 3.90240283202 29.0852516093 1.45867232525
844 1 5.41496078699 28.3727701259 3.25814230795
1017 1 6.16534215123 29.9726229633 1.09038704526
1033 1 5.450282012 30.8222844943 3.21777759908
1036 1 7.68590663792 29.207606385 2.86737109607
841 1 8.43267143934 28.3541706887 0.682481703767
1019 1 9.9667608244 30.0363798983 2.444073718
1020 1 8.42726470435 30.8176078079 0.684705736283
2372 1 10.6839436331 29.1815783942 0.263125919689
2355 1 10.6771664565 31.6471506554 0.267401188899
2186 1 12.2443265999 28.4044208671 2.00914062397
2371 1 12.2511667555 30.8698661956 2.0133630982
2378 1 14.5634672835 29.2364069463 1.59494134093
2188 1 16.0160950145 28.4133287271 3.37453126509
2361 1 18.3673633498 29.2139998465 3.02172098049
2377 1 16.0390427018 30.8826204181 3.27588043206
2191 1 19.2561378192 28.4388513368 0.924899129384
2360 1 17.0407854439 30.0794216408 1.1175204356
2194 1 19.8839366529 30.775584085 1.26267265551
2363 1 22.1968450813 31.2078529833 1.69093722223
3531 1 22.0956220278 28.5974416601 1.73792176689
2379 1 20.8112075947 29.7698784332 3.31479374556
3532 1 26.6840788177 29.2659380922 2.74257071665
3538 1 25.9604910993 28.3820072793 0.581372609556
3707 1 25.9546462431 30.8640050854 0.609322676886
3724 1 24.3230532757 30.0528475587 2.39147377824
3529 1 23.7889253916 29.2201965418 0.133630507845
3536 1 30.5008326335 29.2180485461 1.39355102207
3553 1 28.9648005968 28.4106207791 3.1621993219
3722 1 29.0065653798 30.8912753108 3.15308627981
3726 1 28.2290375244 30.055539085 0.980354332448
4878 1 32.7763811425 28.3838598445 1.80904521069
5047 1 32.796347778 30.8568483228 1.81059833217
3742 1 31.2843875578 30.0516748345 3.57417027853
4873 1 34.3239271808 29.1743914263 0.0396362108283
5068 1 35.0779078213 30.0099885433 2.21374971481
4876 1 37.3456375018 29.1771224449 2.6183763368
4882 1 36.5855517871 28.3317149467 0.465723349302
5051 1 36.6085243024 30.7973313878 0.423909838105
5070 1 38.9291827723 29.9933628057 0.847451997594
859 1 41.8388272564 27.6652954131 3.4987482286
4880 1 41.5572548806 29.4593403389 1.23407523177
4897 1 39.6395603332 28.3916187696 2.99932396083
5066 1 39.5755652535 30.807667573 2.99519717419
5086 1 41.862665932 30.3783478384 3.38317783204
5207 1 0.619623865716 31.7878122344 1.44397404112
1010 1 0.616047803636 34.7920166127 1.90284214972
5048 2 2.18529171538 33.2566310122 2.06672390985
1340 1 2.49378933349 35.0549589686 0.0704369443438
1015 1 7.73529788469 31.669353666 2.86295431643
1202 1 4.22367673691 33.9171278339 1.52267452589
1016 1 6.13869502349 32.4097672307 1.11146777034
1185 1 6.3198128539 34.8862022627 1.10675975759
1025 1 5.62839848302 33.2619557427 3.35018386956
1204 1 7.8046603344 34.1434647055 2.90985880448
1009 1 8.4422000565 33.2836520128 0.700779489209
1018 1 9.99109268393 32.5015116021 2.45374501801
1187 1 10.0603764526 34.9812147481 2.47370984206
2540 1 10.7054162823 34.1146830147 0.269874120843
2357 1 14.5515338179 31.6957962015 1.55653152697
2354 1 12.2343780289 33.3289210819 2.03665254574
2546 1 14.4383555447 34.154353512 1.63074430445
2358 2 18.2858510079 31.8126731219 2.64694236057
2527 1 18.4256815112 34.10855885 2.9970277987
2688 1 16.8125908648 32.5448982015 1.09198310091
2356 1 16.0880890787 33.363471259 3.30544104584
2529 1 16.6088193463 35.0116416372 1.24833217692
2673 1 18.8797344019 35.3575256552 0.984416002417
2362 1 20.2049681739 33.2633668956 1.24569021022
2682 2 22.2761573102 33.805181739 2.08125012638
2532 1 20.6324509521 35.0981940343 3.21740160794
3703 1 20.7373665641 32.4498519278 3.42887096003
2531 1 21.2026699782 35.5788344584 0.302364353882
3723 1 26.7214862677 31.748442511 2.72324060971
3700 1 26.7637485901 34.1988027964 2.74857040026
3701 1 24.377324362 32.5023741863 2.35577924991
3706 1 25.9087306284 33.360360594 0.588314083275
3892 1 24.5146371773 34.977289803 2.41062770764
3697 1 23.6488042382 34.2752443582 0.13891850776
3725 1 30.5144374216 31.6965532418 1.40151304855
3704 1 30.4929776829 34.1752833384 1.42298915889
3705 1 28.2256889001 32.5428526419 0.989771342547
3721 1 29.0192074505 33.3569023216 3.18058703426
3894 1 28.233414744 35.000540345 1.01788175296
5052 1 34.309385142 31.6479202453 0.0315632031228
5046 1 32.7657814719 33.3362908127 1.82392919263
3910 1 31.255939086 35.0103170445 3.60884150529
3720 1 31.28989357 32.5258501052 3.59226332825
5041 1 34.2412193747 34.129404584 0.0490648176207
5236 1 34.9655567464 34.9503568053 2.22870897733
5067 1 37.3118101003 31.6503377629 2.58928429269
5045 1 35.0358431671 32.485190753 2.21198746788
5044 1 37.2029081375 34.1484541263 2.57579597485
5050 1 36.5043102619 33.293476764 0.417763159713
5238 1 38.7715363424 34.9677734995 0.839690505496
5049 1 38.7652227556 32.4762225203 0.770779402429
5069 1 41.0128019635 31.781426888 1.26377839152
5065 1 39.4494426237 33.3043297943 2.88729844891
5237 1 41.0959805188 34.159899939 1.25326894143
5064 1 41.7472100665 32.7221859692 3.4481651007
5254 1 41.6848397375 35.1441438515 3.49458758488
5216 1 2.15099851603 39.3565970874 2.13640465489
165 2 0.740662147386 39.4252191601 0.435807639264
1178 2 2.25077687559 36.7989961031 2.19335837634
20 1 0.257679680289 37.5348530108 1.77100295646
1201 1 5.60705066559 35.6631363681 3.39515388212
26 1 4.28016204649 38.7077362091 1.66020535336
1181 1 4.28741866819 36.3480681162 1.52083299249
1184 1 6.41106782887 37.3308066738 1.06808912602
1180 2 5.80375946918 38.0212389283 3.14803888881
28 1 7.91199439992 39.0464293083 2.94552604166
1183 1 7.83524688824 36.5888553328 2.96008428721
1188 1 8.52380852219 35.7672675794 0.728751563575
1177 1 8.62277520122 38.2371329017 0.695671425159
1186 1 10.0657303187 37.4485797443 2.50396825847
2523 1 10.7324020887 36.5882809554 0.290498451895
1364 1 10.8452809172 39.067685567 0.247584757116
2539 1 12.3283023615 35.8196781169 2.01621214621
1370 2 14.4677194063 39.2572835057 1.68201517133
2522 1 12.3041447174 38.2702054428 2.02822219039
2525 1 14.6220625302 36.6816855588 1.54882431611
1356 1 19.0762028623 39.5029194744 0.684091938428
1351 2 18.1464813972 39.0254505847 2.6934194678
1372 1 18.4048026983 36.5458130326 3.08618323401
2524 1 16.0507719531 38.2910148789 3.22272736028
2528 1 17.2603057325 37.3249812085 0.997446871205
2545 1 16.0512223967 35.8798690621 3.3276144078
2521 1 20.0556028899 37.4919070648 1.56135543977
3702 1 22.4345424877 36.1757905444 2.10270069622
3870 1 22.4016375842 38.5926261283 2.19441720694
2530 2 20.8529991958 37.5174503139 3.58997328427
3865 1 23.7336914388 39.1661635758 0.289081663262
3875 1 25.9751107555 35.841822466 0.621325838665
3869 1 24.5171576442 37.4384082459 2.50113115042
3874 1 25.9474316311 38.3424856116 0.659702286201
3891 1 26.7429645964 36.6610985555 2.85514078085
3885 1 26.7796466973 39.1108099568 2.80175730477
4015 1 23.7679424758 36.7308899839 0.226407238247
3890 1 28.9811975222 35.8231382641 3.22572080407
3872 1 30.4025897071 39.1052785646 1.4695503324
3873 2 28.2038351287 37.4767598247 1.06751408772
3889 1 28.9662684341 38.2882577434 3.27782943474
3893 1 30.4651913738 36.6397253505 1.46453076188
5215 1 32.7240692766 35.8249700611 1.84979690293
5214 1 32.7003888487 38.2841381461 1.8880519946
3888 1 31.2385740029 37.4800190059 3.63758168607
5209 1 34.1661423146 39.0740739105 0.133391634342
5220 1 34.1833775195 36.6005909802 0.0679036980803
5213 2 35.0210735103 37.3649872699 2.17365521008
5219 1 36.4718980891 35.7768663091 0.472734651526
5212 1 37.217214097 39.0960011726 2.66810648572
5218 1 36.4527006021 38.2659281755 0.501236706745
5235 1 37.2309490088 36.6208406952 2.64671557361
5217 1 38.7306144779 37.460764173 0.890287041033
5234 1 39.4330250896 35.8052786032 3.00931416301
4196 1 41.0865734752 39.1295400782 1.38242888625
5233 1 39.4604401232 38.3044739623 3.02628021549
1179 1 40.9709054733 36.5795694069 1.28596282473
5232 2 41.5613903333 37.54912929 3.55126657579
37 1 2.67391214402 1.24142451205 6.26989998828
13 1 2.49474639629 3.53629718122 5.98309151392
186 1 3.39405906308 2.794646291 3.95354700191
14 1 1.36506217557 1.59790217542 4.03018387069
18 2 3.40521445522 0.355089333089 3.95551287297
1208 2 0.71245755135 0.31579545759 5.9811666401
16 1 4.88902867104 1.91168555051 5.57673335816
23 1 7.06978471647 2.8630660321 5.06614737148
24 2 7.24083211312 0.507248463665 5.10501859171
15 1 6.25306367964 3.65866001979 7.21019340498
42 1 6.35477432443 1.17116554124 7.28920480364
22 1 8.5815871168 2.04237624441 6.83004256186
27 1 9.39895592035 1.21035810678 4.65107088128
1358 1 11.6026717137 2.05081750289 4.17301617429
1375 1 10.8323740213 2.88742568502 6.37861196518
1376 1 10.8610697798 0.405995795592 6.42199926452
6 1 9.32198817958 3.69292787567 4.61190159886
1361 1 13.8138380098 2.94561883066 3.7058320136
1362 1 13.8148611779 0.442742675961 3.78247650624
1360 1 15.3467538114 2.14739910766 5.3725293228
1381 1 13.100912258 1.28281706308 5.93831171761
1357 1 13.0774794234 3.76027121865 5.92220885545
1367 1 17.586270004 2.9763647619 4.75882953725
1368 1 17.7086980196 0.537957068999 4.79364434454
1389 1 18.8557984798 0.474422388135 6.87898698603
1386 1 16.7002474102 1.4011325447 7.17120074734
1359 2 16.9159583604 3.77185170959 6.82387380917
1354 2 21.643161597 2.46469350098 3.79534199638
1371 1 19.6927603003 1.9204292641 5.03745913276
2706 1 21.768891285 1.11094555071 5.87948165735
2726 1 21.5995381376 3.54977563415 6.02813953754
2695 1 24.0010749867 1.69003746695 4.41873078138
2731 1 23.9237175561 2.96836334597 6.48359472236
2730 1 26.0823806147 2.06404140498 6.65759105593
2704 1 25.2952925558 3.73692938449 4.64144757321
2711 1 24.0818988055 0.538291327924 6.43585080459
2733 1 27.4844955021 0.458331135403 4.95227579911
2708 1 27.553152424 2.91157934906 4.9885180925
2732 1 29.784869401 2.03064150849 5.39178583873
2729 1 28.3444272795 1.25440865726 7.15887411008
2728 1 28.3616552767 3.69447486709 7.17565947273
4055 1 33.4940383712 2.03570377926 4.06371411323
4048 1 34.3296982279 2.81230256256 6.26361289497
4050 1 32.0397080797 1.19833514783 5.83538336136
4075 1 34.2961490334 0.348678740728 6.23306522278
4049 1 32.067729888 3.65774232325 5.84047136161
4052 1 38.086356676 2.83176360405 4.8860316915
4053 1 35.7929033477 3.6286651065 4.48533523897
4054 1 35.7428340658 1.16276983381 4.44753072254
4074 1 36.5974718715 1.96006383438 6.61200771644
4077 1 38.0122769512 0.370459692041 4.81965173106
32 1 42.717816508 2.44101076069 5.71607465603
4073 1 38.882892916 1.15753104919 7.01914237007
4072 1 38.9402082042 3.6439065958 7.04406130565
4078 1 41.81717707 0.381107241006 4.14081843206
4076 1 40.3242919761 2.03402797071 5.24841905098
5247 1 41.2003582889 0.457153967608 7.0302711573
182 1 1.04027849907 6.87402738695 3.7349518653
31 1 0.313535436468 4.30321094256 7.013095141
206 1 0.859059023948 4.30545327872 4.3926140341
392 1 2.27050330416 5.81687424806 5.64951675739
211 1 4.73226578501 4.44894911125 5.37952383054
184 1 4.53339614752 6.89845219178 5.48575075642
192 1 7.01072932931 5.28268660472 5.05228334675
191 2 6.87679901399 7.76473866079 5.05797783357
210 1 6.33468117042 6.17441244917 7.16782936102
190 1 8.50708152172 7.01502369746 6.7990571726