ITEM: TIMESTEP
0
ITEM: NUMBER OF ATOMS
5376
ITEM: BOX BOUNDS pp pp pp
0.0 42.7297273569
0.0 39.5600404449
0.0 37.0050293879
ITEM: ATOMS id type x y z
17 1 2.37945846345 3.46897594705 2.24898822535
19 1 0.35798398601 2.78808561473 1.46686405367
5216 1 2.09451255847 1.04905582009 2.24623780816
165 2 0.753883915751 0.13226713453 0.461821868509
164 1 3.03684056954 0.172548050905 0.167006297025
5 1 4.12851694204 1.94832073012 1.50064080313
8 1 6.2289699963 2.79770079446 1.16683746252
9 1 6.02440163547 0.277170176138 1.25061074027
25 1 5.37198915946 1.04257740004 3.4793266272
7 1 7.62819197678 2.0075594935 2.99773502497
4 1 5.40327162163 3.5570336295 3.37740988187
10 1 9.90477742607 2.87723797347 2.52971172262
11 1 9.9520160378 0.393949311718 2.54620543525
12 1 8.37905484698 1.16801364389 0.821678546839
1347 1 10.6420341261 2.03764461861 0.341570436095
1 1 8.400559197 3.67387353218 0.758132044405
1349 1 14.2925699225 2.24767655791 1.58408748233
1363 1 12.1458521873 1.28285804965 2.07525382377
1346 1 12.1654132984 3.77124386632 2.03495915018
1352 2 16.3895118415 2.80789330751 1.12943984249
1353 1 16.6705010812 0.5463039983 1.04533837732
1369 1 16.0051217108 1.51751697509 3.23730218358
1356 1 19.2166698052 0.575954957669 0.556856772586
1540 1 18.4507205498 2.28832110479 2.74642313638
1345 1 18.6928768976 3.49407087981 0.622313844648
2710 1 22.9439733462 1.78309050662 1.95963177035
1355 1 20.5799261289 0.409901561234 3.30088294998
2863 1 20.661400261 2.63791480454 1.56345659898
2716 1 21.5487625344 0.400977767028 0.773245854202
2694 1 24.6304201054 3.1460738282 2.68810365839
2699 1 25.4784626464 1.40559904071 0.790895593359
2698 1 26.096869104 3.69457358739 0.635385323431
3868 1 26.7603014473 1.97646813721 2.75302829753
2709 1 24.7941711021 0.684682852878 3.28298584124
2715 1 23.78917168 3.90833218221 0.29445377884
2697 1 28.1923094083 2.6872056816 0.961857272579
2714 1 28.9758075293 1.06496379068 3.11460238822
2717 1 30.4535903595 1.89745066594 1.36686695488
2718 1 28.1060150219 0.253984751767 0.910300770396
2713 1 29.023830877 3.57597649115 3.11818069769
4039 1 32.7256922045 1.08641309369 1.78928726489
4038 1 32.73006568 3.56183012781 1.81567159668
2734 1 31.2276112645 0.287130638372 3.53433505071
4044 1 34.212710707 1.91123645327 0.0375308873664
2712 1 31.263204121 2.75478471626 3.55500347908
4060 1 34.9624210035 0.252848553058 2.19108052977
4037 1 34.9887843392 2.72043805107 2.22865132085
4043 1 36.4788032565 1.10266646617 0.461007654561
4059 1 37.2555205134 1.91296584228 2.67975096928
4042 1 36.4623198405 3.57874553128 0.484785686744
4041 1 38.681845622 2.77654603435 0.930946452232
4062 1 38.7479846503 0.330375330696 0.866495930109
38 1 42.4665442061 0.68440825769 2.4776097286
4056 1 41.7824060671 3.00489923866 3.56607661647
4061 2 40.7742115387 2.00247591911 1.38549644312
4058 1 39.7397838406 1.0200983605 3.17308913509
4057 1 39.4488376796 3.52318369116 3.1484333229
187 1 0.467722400129 5.12913067182 1.98406316281
173 1 2.72672348447 6.1443131629 2.15939763567
331 1 1.24909320329 6.94731162948 0.700018548425
332 1 2.01105540526 4.6061467732 0.0783663106269
194 2 4.2017467564 4.49007894642 1.49050186867
177 1 6.22601403975 5.29148835039 1.00288693091
172 1 5.12660956597 6.2820365416 2.88808271141
175 1 7.54074388392 6.97320872373 2.9098134489
196 1 7.60732394801 4.52276079793 2.94015332749
176 1 6.01199023542 7.80177179245 1.11824436642
362 1 3.99574442058 6.51171614427 0.113703788682
179 1 9.85524741659 5.35264722633 2.51404954052
180 1 8.38704975027 6.16170827355 0.715853183448
1532 1 10.5977464943 4.54423975898 0.319928396164
1515 1 10.5952783771 6.99719958818 0.250267230783
178 1 9.83820942212 7.81563674116 2.49404437699
1517 2 14.1395460359 7.11343943505 1.57466836523
1531 1 12.0441219076 6.22807765299 2.04082016129
1538 1 14.4270452618 4.70753691494 1.48953404212
1348 1 15.9216713141 3.95698754574 3.15224014216
1537 1 15.9929484238 6.4095504859 3.16860636854
1521 1 17.0250687582 5.34263091847 0.801243309766
1519 2 18.0490939995 4.75143601472 2.77636863775
1839 1 18.4360538589 7.09376340491 2.69921195452
1520 1 16.50487049 7.88157751373 1.25764230792
1524 1 19.9351958218 5.46212891711 1.26821510695
2879 2 21.9981595329 7.01179721872 1.81508673595
2689 1 22.1391374005 4.60955742679 2.12186255357
2692 1 26.7534961563 4.39815326176 2.88690212819
2867 1 25.9460982907 6.0366899915 0.498852254271
2883 1 26.6471915018 6.86275180626 2.7637260526
2884 2 24.5841510505 5.32499980978 2.28174353368
2868 1 23.7024996685 6.59936279699 0.284359352491
2861 1 24.4027607069 7.79729181967 2.27293503999
2696 1 30.467720123 4.38669062699 1.38356536408
2882 1 28.9249371919 6.02998317383 3.21128932095
2885 1 30.4306346229 6.85185318659 1.42644555021
2886 1 28.1938682373 5.19358145854 0.995956022513
2865 1 28.1699040489 7.66344625778 0.980292019433
4207 1 32.7023009031 6.03322450209 1.84885429791
4212 1 34.1928658289 6.85781036537 0.104449491877
4033 1 34.1987995523 4.38898444601 0.0684724112609
2880 1 31.2181178226 7.67692933395 3.623572061
2902 1 31.2178605491 5.21389945874 3.61044288131
4228 1 34.9705622262 5.20780734786 2.27233022732
4205 1 34.9754412591 7.68677120454 2.29735718137
4036 1 37.2426940783 4.40943543299 2.68148148544
4211 1 36.4669861655 6.04503851383 0.534769954379
4227 1 37.2491540341 6.88965874296 2.72977710178
4230 1 38.7424686924 5.24678470248 0.949728326392
4209 1 38.7810253406 7.67155892132 1.00540720837
4040 1 40.9077406654 4.45912179087 1.4994330799
4226 1 39.5224845037 6.11930947189 3.11088476707
4397 1 41.2187229814 6.90847415646 1.36304003069
4246 2 41.7043715596 5.54702653134 3.59386525134
4229 1 0.556738530957 8.88834833083 1.74669254638
170 1 0.493239677737 11.824453322 1.82338698502
500 2 2.08052771912 10.580612902 0.762172191024
355 1 3.53147902892 8.58920765242 1.50488799264
345 1 5.89904410985 10.2220728341 1.17233245933
361 1 5.36325276705 8.65487692559 3.33277742074
353 1 5.32466459244 11.1099996562 3.37883973863
364 1 7.56615135417 9.46275253406 2.91574655809
169 1 8.30646556749 8.59502068279 0.746674690456
347 1 9.81893769719 10.2996189877 2.51446640199
348 1 8.25879271748 11.0573188186 0.761973391312
1700 1 10.5545478253 9.4681705183 0.350838065153
1514 1 12.0818518449 8.70469708173 2.06313840501
1699 1 12.0747620089 11.1698194788 2.09123899617
1706 1 14.334443725 9.57472417808 1.6428840145
1516 2 15.7884697002 8.98433129946 3.50397577119
1689 1 16.5210774862 10.4592177972 1.22004149273
1705 1 15.8784973972 11.3277244124 3.42179689062
1708 1 18.0359190125 9.6613323782 2.90073966401
1842 2 18.4444522338 8.99726911228 0.84680529736
1838 1 18.7358117112 11.3761521031 0.731369384891
2862 1 22.1049186266 9.61075575425 1.80484903941
1692 1 20.4393006426 11.2377779313 2.84557437742
3031 2 20.9263348488 11.2909092682 0.316957081377
1691 2 20.2996329851 9.04569111068 3.20494510007
2857 2 23.8227569461 9.18188713564 0.109205324923
2860 1 26.7114820181 9.33050872021 2.69122933689
2866 1 25.9459609884 8.48187089845 0.513625066456
3035 1 25.8943252961 10.9642861587 0.485617069437
3052 1 24.3840183418 10.2164550514 2.23292539403
3051 1 26.7733712543 11.786695903 2.67841946448
2864 1 30.4466036028 9.32845433585 1.41565425672
2881 1 28.959179025 8.49770873461 3.17382482901
3054 1 28.186847096 10.1538916501 0.946085897722
3050 1 29.0013003068 10.9738442626 3.15105337943
3053 1 30.4817789446 11.8068641087 1.40482737487
4201 1 34.2022154452 9.33034859735 0.119145866406
4206 1 32.7074668762 8.50511446372 1.86491714942
4375 1 32.7270904161 10.9806940795 1.86633281646
3070 1 31.2418658703 10.1515276886 3.61468284939
4380 1 34.1919928463 11.8100841482 0.116348696949
4396 1 34.9912689223 10.166402424 2.31174504518
4204 1 37.2534400908 9.36373552288 2.74000529859
4210 1 36.4774893928 8.50905944515 0.56085761418
4379 1 36.4458346988 10.9946822033 0.54611501056
4395 1 37.2463480083 11.8295479226 2.73689440476
4398 1 38.6808369263 10.1344936766 0.921312662934
4224 1 41.7597076459 7.9375480271 3.5859153777
4225 1 39.5010216172 8.56539334524 3.17163668965
4394 2 39.4481208829 10.9316236253 2.94528652914
4208 1 40.9532667772 9.31334494939 1.40483810321
374 1 41.8395059049 10.3532822569 3.50243678517
542 1 40.9169564027 11.7229456185 1.42127999414
341 1 3.47690778422 12.0173909936 1.97484992851
4582 1 1.43023235079 13.9732319736 2.45564572095
523 2 0.243394879379 15.7416807572 1.56608617501
530 1 3.74045243818 14.4005691227 1.61290992607
499 1 2.08874680163 12.9547871811 0.103709320176
343 1 7.53909818571 11.925666302 2.91851781899
340 1 5.1436410271 13.566744968 3.46289993969
344 1 5.89174692066 12.6775121532 1.25977736914
513 1 6.01633211322 15.1909631354 1.18579223924
532 1 7.46154474859 14.3897403277 2.97615015159
1683 1 10.5380883809 11.9340821951 0.339129129371
337 1 8.23052406677 13.5330575748 0.789337430911
346 1 9.79534327761 12.77273054 2.51467184062
515 1 9.74424599132 15.2336985864 2.52882830817
1868 1 10.517780203 14.4097695684 0.344613003417
1685 1 14.3284537246 12.0493092817 1.67681356765
1682 1 12.0581742831 13.6478614111 2.09072104019
1874 1 14.3622576958 14.5256345716 1.68579368579
1688 1 18.119455286 12.1941299691 2.98748170757
1684 1 15.8134993139 13.7270101113 3.46838643581
1876 1 18.0703685706 14.6728331631 3.19217388509
2016 2 18.7768680735 13.9198388543 1.02742917103
1857 1 16.7649084112 15.4373271287 1.25043575949
1833 1 16.5874343789 12.931407583 1.28062599927
3030 1 22.2883339582 12.3540591126 1.89054164907
1681 1 20.3133513448 13.6693869557 3.15856825214
3194 2 21.9529211341 14.7713028973 2.13658644084
3028 1 26.7336337451 14.3022829496 2.68407215917
3029 1 24.6107845702 12.5247532678 2.22945372175
3034 1 26.0832190934 13.5247390036 0.499421387829
3220 1 24.4688867508 15.0975068313 2.09753633639
3025 2 23.8714616757 13.4421353843 0.134969346621
3032 1 30.4997962548 14.294799485 1.38834178249
3033 1 28.2495786392 12.6294151677 0.942270032727
3222 1 28.2614842552 15.1236601792 0.932025211199
3049 1 29.0027457202 13.4682333471 3.13395886519
4374 1 32.7465614835 13.4646531722 1.84801013779
4369 1 34.2217922244 14.2923432648 0.0964172350572
3048 1 31.2564794566 12.6397975197 3.59726318248
3238 1 31.2789737585 15.1326095393 3.57918260609
4564 1 35.0242515447 15.1177272695 2.27683821254
4373 1 35.0059197943 12.6408293346 2.30258685369
4372 1 37.2881980011 14.2799752568 2.71623379363
4378 1 36.4782524652 13.4626637698 0.543217876971
4377 1 38.7209448313 12.6192989983 0.940715755873
4566 1 38.8255323398 15.0488412546 0.929074013827
339 1 41.2155046492 14.047562094 1.44269786075
4393 1 39.5487675288 13.3752175621 3.11299853867
349 1 41.8195771562 15.1894479118 3.54175521867
4392 1 41.9398965823 12.8291377549 3.67950617468
4562 1 39.4606641963 15.8026323579 3.13104666459
4531 1 1.20975729927 16.6522454321 3.46923031597
4703 2 1.85714136946 18.6532252381 1.9633321924
509 1 3.73790185278 16.9001197792 1.65521933996
698 1 3.97329956174 19.397779829 1.57156606829
529 1 5.35557775823 16.0833150534 3.36052853912
508 1 5.43932848942 18.5583481928 3.35592229864
512 1 6.05327670681 17.6839730945 1.16043366991
511 1 7.57979840405 16.8885265249 2.92526238602
700 1 7.68971706602 19.3631356844 2.9321284687
516 1 8.29814164319 16.0229603631 0.75817712032
505 1 8.36616367441 18.5115037162 0.734904314667
514 1 9.84028614864 17.73112138 2.49387631469
1851 1 10.5513569395 16.9018925356 0.30664225092
2036 1 10.6326003389 19.396567728 0.273073839492
1850 1 12.0732343369 18.6370291635 2.00233002255
1853 1 14.1695771576 16.9609918738 1.70279377127
1867 1 11.978390158 16.1195316593 2.06736610498
2042 1 14.3516267694 19.4436859456 1.61676948457
1852 2 15.3514824077 18.517048634 3.55401032685
1873 1 15.6841620018 16.145733349 3.41282779796
1855 2 17.9641008877 16.9112839741 2.92546214145
1856 1 16.3000232089 17.7098235662 1.40943911034
1849 1 18.6348346859 17.8966819771 1.11256627604
3037 1 20.3447703945 16.4432666472 3.07148543252
3198 1 22.3674625228 18.2822734974 1.78723025971
3026 2 20.5920213901 17.0178600454 0.771864755432
2027 1 20.8873466439 19.4818740105 0.452193362947
3203 1 26.1152103384 16.0737399163 0.507472430046
3196 1 26.7979832442 19.2666908019 2.6695355592
3197 1 24.6231449934 17.6226497939 2.19043252076
3202 1 25.948601114 18.5340433992 0.424550925195
3219 1 26.8026194788 16.7868909921 2.68583454027
3204 2 23.886281711 16.8375137198 0.0795141678399
3218 1 29.0367393192 15.9543192732 3.12152181828
3200 1 30.5219627219 19.2620119983 1.3603621429
3201 1 28.2391281516 17.6392596057 0.904992340049
3217 1 29.044347014 18.4345451429 3.11654255332
3221 1 30.503350533 16.7861796911 1.36815753374
4543 1 32.7624283075 15.9509802394 1.82718036517
4542 1 32.7789906394 18.4268035564 1.82145583124
4548 1 34.2581974177 16.7709079019 0.0792912038589
3216 1 31.2830431583 17.6027435337 3.55539191194
4537 1 34.2734161769 19.2423840643 0.0706025682647
4541 1 35.0401049723 17.5977078681 2.27313013809
4547 1 36.5299198355 15.9315087154 0.529661972876
4540 1 37.40088013 19.2501210828 2.70528642118
4546 1 36.5398073347 18.4194422806 0.532840088357
4563 1 37.3023519825 16.7730949551 2.70860620662
4545 1 38.7826993851 17.5788767562 0.948583133233
4544 2 41.2013949858 18.6930559711 1.30092784903
4565 1 40.8470930921 16.4465001646 1.26507374173
4561 1 39.6955669678 18.3854518747 3.14265014453
4750 1 1.49451226368 21.0603854764 2.00032540409
691 1 1.2637583327 23.5281319841 1.89148921014
677 1 3.86476186865 21.8707863433 1.57654143133
680 1 6.2192912526 22.6325533563 1.18641287905
681 1 6.20425537141 20.1731831522 1.14820695268
697 1 5.46288763532 21.0395002617 3.32706264699
676 1 5.52318225902 23.4807046665 3.37656724525
679 1 7.74732471847 21.8364013224 2.93643858657
682 1 10.0196496006 22.6717245295 2.50544138217
683 1 9.95695175362 20.1882094279 2.51775873503
684 1 8.47191698583 20.9920987115 0.732464478331
673 1 8.51897429655 23.4614370952 0.741886551077
2019 1 10.7232618177 21.8616608594 0.279137804738
2021 2 14.3292810538 21.9166268449 1.57027604069
2035 1 12.1747096632 21.0587701379 2.05994133182
2018 1 12.292202589 23.5287719882 2.06969030156
2023 1 18.8264928252 20.2943445005 1.55370309691
2025 2 16.6586150638 19.9049852029 1.13184690067
2024 2 17.9165964112 22.570109844 1.78103950489
2041 1 16.1117774181 21.1187011774 3.27178230291
1854 1 18.8176268084 21.4407620231 3.66347295549
1858 1 20.8311895296 20.1946593804 2.88203637262
2212 1 20.1494624849 22.3216830513 1.32888512114
3367 1 22.5007658658 21.063278088 1.63863952623
3541 1 22.4907955755 23.5471599953 1.75387453267
2043 1 21.0165815379 22.9010002 3.53207653198
3388 1 24.5977419464 20.0421356198 2.03880189117
3365 2 24.7049734754 22.4589444275 2.22133604758
3371 1 26.0529612962 20.9769728434 0.405741857764
3387 1 26.8659694058 21.7699288636 2.6138058405
3370 1 25.9591189437 23.475850734 0.376644378677
3390 1 28.2720049184 20.1131925379 0.893567985702
3369 1 28.2619831081 22.5973573278 0.844100436581
3389 1 30.5218628316 21.7341146466 1.33523333271
3386 1 29.051040979 20.9083083051 3.11212919458
3385 1 28.981716496 23.3863368107 3.09942508811
4711 1 32.7892213183 20.8921283257 1.80971480163
4716 1 34.3041562389 21.7096969828 0.0740994469723
4710 1 32.7688933467 23.3624318099 1.7866570128
3384 1 31.2713462489 22.5450518129 3.55654740656
3406 1 31.2958427096 20.0747300848 3.56660384406
4709 1 35.0345329054 22.5435891973 2.25098556853
4732 1 35.0748841735 20.0649995912 2.2642424281
4715 1 36.6028881098 20.8781274707 0.512532141082
4714 1 36.5044410717 23.3527275129 0.481128729274
4731 1 37.2760673675 21.7358808498 2.7078831961
4713 1 38.7245051898 22.565661232 0.916901395307
4734 1 38.9569476606 20.0592388574 0.977239690855
4733 1 39.4930179992 20.9914545265 3.25650888103
4729 1 39.6018579163 23.4426255435 3.11006556418
675 2 40.7564903587 21.8665053459 1.45105064286
4918 1 41.972789207 22.8152922149 3.23114478708
860 1 42.7047727923 22.0255564504 0.0521259169791
703 1 41.7793674682 20.3202072113 3.36067869142
878 1 0.681462878763 25.9086450034 1.64290731539
1004 1 2.4781019198 25.2145534932 0.0426674719144
1003 1 2.44128655694 27.5258902584 0.0468533026615
686 1 3.40912548334 27.5465022986 3.68016126779
866 1 3.95601226286 24.2742656119 1.64384224619
845 2 4.22746224616 26.7467653956 1.43977272115
849 1 6.28971767479 25.0837888615 1.15591410531
865 1 5.65331543616 25.9565955432 3.34164601666
848 1 6.38908094924 27.5596948271 1.17319215958
868 1 7.77347094063 24.3084370818 2.94161930201
847 1 7.86650573724 26.7717423044 2.94224446453
851 1 10.0534130613 25.1409185664 2.51752896807
852 1 8.55982785899 25.9323241601 0.740400714027
2204 1 10.8034428348 24.3201557964 0.302331264751
2187 1 10.8332533418 26.7807530385 0.329722268347
850 1 10.1200926025 27.6166407017 2.5203336702
2189 1 14.6377291584 26.7871522945 1.70739815511
2203 1 12.3381783289 25.9804213397 2.10110007888
2210 1 14.5969490828 24.3454964739 1.68019682024
2022 1 18.4758449722 24.0554474542 3.36091527783
2193 1 16.9817465954 24.9673688391 1.4451734911
2209 1 16.1510471734 25.943275014 3.5424652408
2211 1 18.4449536376 26.7262194032 3.14005273687
2352 1 19.209143329 26.0970052561 0.532583861599
2192 1 16.9102454712 27.469940248 1.40393167942
2017 1 20.8576563883 24.2473802485 0.0123799105589
2195 1 20.558269369 24.9125909481 2.44994250653
3366 1 22.6027397942 26.3700453776 2.87455587855
3534 2 20.5377069386 27.1215618886 2.17769230169
3364 1 26.6931483304 24.2409868488 2.64922059841
3539 1 25.9060543794 25.9203027374 0.469546145665
3555 1 26.6858523703 26.6888352932 2.70390389703
3556 1 24.4249509688 25.0119133316 2.12793746611
3540 1 23.6489673453 26.9146265215 0.37335486561
3368 1 30.491662266 24.2011833178 1.34099960546
3554 1 28.9945135807 25.8555390739 3.10528971294
3557 1 30.4921610983 26.6679799346 1.34290289284
3558 1 28.2030476425 25.0527062361 0.897471289947
3537 1 28.1896964851 27.5144868794 0.919925037312
4879 1 32.7826195153 25.8298008298 1.77878300182
3552 1 31.3016655566 27.4869175696 3.53208337439
3574 1 31.2831946501 25.0143326794 3.54524677384
4884 1 34.3021527623 26.637605147 0.0253465087191
4705 1 34.2661645778 24.1683451688 0.0126233474641
4900 1 35.0738404652 25.0083787534 2.20954345956
4877 1 35.0878307574 27.4702467908 2.21396336903
4708 1 37.3384076997 24.194298332 2.66220935498
4883 1 36.5772883186 25.8220904157 0.446723110279
4899 1 37.3948951029 26.6721166099 2.59993359317
4902 2 38.8523094599 25.0074685706 0.90969066828
4881 1 38.9023941383 27.5374243827 0.759887268676
4712 1 41.2061058206 24.1948811227 1.35157130493
4901 1 41.1098791112 26.5815709462 1.18827682055
4898 1 39.6560814703 25.8853409759 3.03741556865
674 1 41.9127916082 25.2284533888 3.4940502798
1046 1 1.67920176606 29.1782711735 2.55438727412
5207 1 0.612079116473 30.921932216 1.19327508058
1027 2 0.366470933902 28.2667004129 1.00825154356
1028 1 1.36859865003 31.3643399479 3.58007508394
1013 1 3.59015356272 31.3985580284 1.6115300324
1034 1 4.02164479665 29.0627085274 1.62045079484
844 1 5.6031010106 28.414286877 3.36143813579
1017 1 6.26328942147 30.0071064575 1.18827029876
1033 1 5.54040504205 30.8589458759 3.33102554179
1036 1 7.83322962898 29.2386167512 2.92994126752
841 1 8.60031416283 28.4002503248 0.751173825331
1019 1 10.0892645501 30.082610465 2.53018871363
1020 1 8.54620400812 30.8607047769 0.787965820447
2372 1 10.8468497816 29.2471383454 0.348048867701
2186 1 12.4210902694 28.4743386583 2.10351527392
2371 1 12.3422462355 30.9312090828 2.11708214792
2378 1 14.8839443945 29.385310058 1.71207973645
2188 1 16.0963467311 28.3543240886 3.55737069342
2361 1 17.8505443997 29.6929220738 2.68725895299
2185 1 17.1874070202 29.6187560575 0.305395026174
2377 1 16.0172011477 31.0236069874 3.53789605059
2191 1 19.2536793382 28.6138403108 1.06664870567
2360 1 16.7811012721 31.5857680504 1.41999586389
2194 1 19.354723629 31.2473484319 0.761127731883
2363 1 22.0378454901 31.3485107658 1.68642926884
3531 1 22.0863430353 28.7955006383 2.0119206276
2379 2 20.1302561057 30.3138196171 2.8927890036
3533 1 24.5089720809 27.7054006696 2.3843371373
3532 1 26.7056539452 29.2095504178 2.68715422607
3538 1 25.8924489617 28.4039307834 0.516083403225
3707 1 25.9618953496 30.8585868912 0.582514439116
3724 1 24.3164534832 30.1120663946 2.3760198546
3529 1 23.6183007832 29.4141274112 0.178078505138
3536 1 30.5212374743 29.1367552655 1.34806356558
3553 1 29.0044044714 28.3300919015 3.10451974029
3722 1 29.038661904 30.8092562419 3.10605272104
3726 1 28.2389664331 29.9869500117 0.934171109002
3725 1 30.5523750929 31.6094284643 1.33958775957
4878 1 32.8042206249 28.3005785571 1.77536328689
5047 1 32.8320567092 30.778297294 1.75312611947
3742 1 31.330654812 29.9611923995 3.52217999843
4873 1 34.2951813428 29.1149304842 0.0131374790609
5068 1 35.1119455434 29.9493272273 2.17076332594
4876 1 37.3856558277 29.1345746827 2.59944960102
4882 1 36.5582540149 28.2707308498 0.471664073218
5051 1 36.5847128672 30.7830274781 0.374531687594
5067 1 37.3892847999 31.6121301447 2.54303613161
5070 1 38.8193567877 30.0268606991 0.798213703971
859 1 41.9116362019 27.7615254442 3.08517301889
4880 1 41.0474252626 29.2300269179 1.0543699118
4897 1 39.6576367396 28.3314668038 2.9620908412
5066 1 39.6591593016 30.7621885439 2.94283777612
5086 1 41.9787793271 30.1785004248 3.65662779013
1010 1 0.646101661853 35.0660204229 2.01153036384
5048 1 1.71461421632 33.0586550599 1.96429586479
1340 1 2.43938271401 34.9655295027 0.196919587589
1202 1 4.07318880974 33.8609057452 1.65300401549
1016 1 6.19128518279 32.4250006801 1.23654563246
1185 1 6.2686081113 34.90248601 1.23918765975
1025 1 5.59953606717 33.2831121552 3.4424094824
1015 1 7.80206460892 31.7028525972 2.97778418913
1204 1 7.81393110974 34.1715813157 3.00106150796
2355 1 10.8164409003 31.7172606406 0.361736058537
1009 1 8.49485158657 33.3153875284 0.812914176882
1018 1 10.064342043 32.5528036197 2.5508216447
1187 1 10.0842486699 35.032969644 2.57178659419
2540 1 10.7523931233 34.180267136 0.382891263156
2357 1 14.5125620563 31.8824878356 1.72578061458
2354 1 12.3155646955 33.4143807606 2.13088514133
2546 1 14.4937035142 34.3458813375 1.72116237908
2358 1 18.5781089615 32.2929608217 2.80902786913
2527 1 18.4553194364 34.6305945008 3.16058981881
2688 1 17.9331185232 33.5445145976 0.730129537919
2356 1 16.2242594323 33.4673797787 3.26878468145
2529 2 16.589984599 35.252290918 1.30760000942
2362 1 20.2539668129 33.5046626721 1.08131241957
2682 2 22.3463824494 33.9652518326 2.01056756865
2532 1 20.7430382133 35.2911903812 3.05739834543
3703 1 20.8713084089 32.828708586 3.48094479625
3723 1 26.7256431857 31.6712636618 2.71685403468
3700 1 26.8219801866 34.1382173234 2.67542370666
3701 1 24.4297329355 32.566682938 2.30535368832
3706 1 25.9634070258 33.3469091413 0.540750851729
3892 1 24.5623141519 35.053692347 2.2992610725
3697 1 23.7145308829 34.3003827825 0.10584961484
3704 1 30.5894112953 34.0717873908 1.32689518454
3705 1 28.2552207975 32.4516684933 0.944591788088
3721 1 29.1015176405 33.2720028878 3.09780574781
3894 1 28.3179424093 34.8791822079 0.919921235593
5046 1 32.8505345561 33.2552041661 1.73215427222
3910 1 31.3486635181 34.9190714685 3.50763719152
3720 1 31.36298964 32.4344995568 3.51476306799
5045 1 35.1146259035 32.4230104069 2.13886302658
5236 1 35.0833895341 34.873240586 2.11922988901
5044 1 37.3517395937 34.0978949935 2.53097243761
5050 1 36.6213968388 33.2486562496 0.360952268081
5238 1 38.8676089087 34.9586607187 0.787876597739
5049 1 38.8988074694 32.4720686074 0.762651348621
5069 1 41.1133480806 31.7130490706 1.34814863911
5065 1 39.6176057892 33.296996026 2.95749309613
5237 1 41.1579693051 34.2034241904 1.2854886572
5064 1 42.0290879049 32.6425588672 3.32368680031
5254 1 41.6707893611 35.1441102418 3.52544217819
1178 2 2.17301404738 36.8556374614 2.33170562911
20 1 0.277917899293 37.6836738929 1.6764171047
26 1 3.83384498102 38.7869147564 2.13823294816
1201 1 5.55189239402 35.6599421968 3.49158561084
1181 1 4.18748055419 36.3581671091 1.64061838826
1184 1 6.2837857874 37.3844630559 1.26658420105
1180 2 5.60085456556 38.0079787787 3.38308287354
28 1 7.69909434518 39.1161240812 2.99633436636
1183 1 7.78914013865 36.635735601 3.04812815299
1188 1 8.51844241212 35.7918477197 0.852253954846
1177 1 8.47436410294 38.2774620093 0.821452138115
1186 1 10.032640638 37.5047430352 2.56942422891
2523 1 10.7314525842 36.6498398656 0.390496961743
1364 1 10.7055463216 39.1183991517 0.363011483769
2539 1 12.3598360824 35.9175766964 2.12122156962
1370 2 14.356407996 39.5028593795 1.65860956813
2522 1 12.2852803373 38.3536297863 2.12584468458
2525 1 14.5973550156 36.8848705201 1.67289181552
1351 2 18.2547844095 39.5549499289 2.50717341377
1372 1 18.7100483054 37.516287072 3.34566730593
2524 1 16.0071971106 38.6454732592 2.8170664648
2528 1 17.4029875764 37.6285467313 1.12024677397
2673 1 19.0398743304 35.9000560576 1.27068624297
2545 1 16.1857266604 36.0372788173 3.41683544815
2521 1 20.3047892711 37.9742347706 1.51391000527
3702 1 22.6067929427 36.5844195136 1.92231793018
3870 1 22.8188073317 38.9363594812 2.61365724159
2531 1 21.2846477938 35.7714740681 0.3082131244
2530 1 21.1229687859 37.5019458718 3.69241802872
3865 1 23.8128212487 39.0075318851 0.338308698094
3875 1 26.0987617005 35.8296260727 0.518960272502
3869 1 24.7460688782 37.524665109 2.2240275339
3874 1 26.161512169 38.3345933095 0.448450311891
3891 1 26.8549851602 36.5771230098 2.70860606252
3885 2 26.7415387284 39.0614345712 2.8077115197
3890 1 29.0848600604 35.7321973634 3.10759842765
3872 1 30.4526851439 39.0052240257 1.34288638809
3873 2 28.4282746536 37.2182329795 0.93078214791
3889 1 29.0173457777 38.1883167271 3.11261662669
3893 1 30.6025879656 36.5403387869 1.3457234065
5215 1 32.8409295802 35.7352124446 1.73300409658
5214 1 32.7648219278 38.1945047738 1.76282218126
3888 1 31.2968418522 37.3932906338 3.52739565187
5209 1 34.2363520673 39.006384893 0.000901049599996
5213 2 35.0987178976 37.2964661557 2.06074774348
5219 1 36.5852502766 35.7278242469 0.35245497507
5212 1 37.1991978367 39.0428097332 2.56423625657
5218 1 36.5018008856 38.2104631051 0.35247514883
5235 1 37.293636079 36.5717881422 2.53734528134
5217 1 38.7667669097 37.4158330042 0.72491557573
5234 1 39.5205099122 35.8144798432 3.02044346723
4196 1 41.0070714998 39.0850943539 1.06663431341
5233 2 39.3178828281 38.2364021218 2.86464382941
1179 1 41.0118261832 36.6436185389 1.27402657251
5232 1 41.4898318744 38.0033228865 3.45374841871
37 1 2.52800974148 0.853249656638 6.46527117759
13 1 2.39899454354 3.28312198408 6.13334040626
186 1 3.38385064378 2.43410915992 4.12384222865
14 1 1.12237067082 1.90723917938 4.26873348746
32 1 0.219191369387 1.33459876806 6.64677520918
18 2 3.10721148804 0.164878117889 4.39607825712
31 1 0.00691900282307 3.65284391657 6.10554777945
16 1 4.81013287481 1.76868351734 5.80221257031
23 1 6.92944547945 2.87827981727 5.17634224724
24 2 7.11259208705 0.537227727968 5.17662355917
22 1 8.52613811169 2.05690521309 6.91515885626
27 1 9.27589362356 1.26177492208 4.71952134118
1358 1 11.4930339132 2.12077061098 4.27178533947
1375 1 10.7569776363 2.93803446945 6.46369143044
1376 1 10.8230498911 0.465258579899 6.483971252
6 1 9.17862840656 3.74006971888 4.70274474391
1361 1 13.6945589367 3.07090108922 3.78783628543
1362 1 13.7493301635 0.582165865787 3.79929289932
1360 1 15.2915335089 2.24293167812 5.40141568206
1381 1 13.0742817549 1.350382582 6.01924165019
1357 1 12.9915964899 3.8163837285 6.01476950555
1367 1 17.5011639631 3.18714694566 4.79168701468
1368 1 17.6998837741 0.525884197949 4.71993010716
1389 1 18.8591169131 0.23674271849 6.91725881151
1386 1 17.0054186146 1.54747802854 6.87410179297
1354 2 21.0934086904 2.62643087555 3.75577201559
1371 1 19.4661407359 2.07878439635 5.26420763749
2706 1 21.504652463 1.23051132453 6.09480128042
2695 1 23.0644259994 1.74844064708 4.33534802459
2726 1 21.3931302087 3.68789398114 6.21920745139
2731 2 23.4756578188 2.80030240737 6.29013682615
2730 2 26.4721331062 1.62477131524 6.48735861107
2704 1 25.3301754274 3.1296658721 4.96407927733
2711 1 24.4067192015 0.547461000852 6.06902942838
2733 1 27.4091290937 0.276845711009 4.84344119256
2708 1 27.7170467791 2.69478825809 4.82441992993
2732 1 29.8708936073 1.90642288827 5.30214321485
2729 1 28.4713461868 1.03645773024 7.11017024254
2728 1 28.211216786 3.54510057513 7.10752606456
4055 1 33.490023235 1.93935276029 3.94940295149
4048 2 34.2463963621 2.73232878675 6.12434509695
4050 1 32.0563337523 1.118937787 5.74667930883
4075 1 34.2574329223 0.265559803937 6.12084450348
4049 1 32.0007573584 3.58288772664 5.7898535717
4052 1 38.0352011908 2.75351430695 4.85695791576
4053 1 35.7608695039 3.55854792032 4.39633615831
4054 1 35.7171981724 1.08214586144 4.35800081853
4074 1 36.4979798952 1.92314996796 6.52397710979
4077 1 37.9793657777 0.31058453429 4.74144664847
4073 1 38.7577113318 1.11256714665 6.95058146049
4072 1 38.8673106343 3.61151056987 7.01823506435
4078 1 41.9511514881 0.633566647134 4.67212376903
4076 1 40.3244203775 2.06177509541 5.3722285528
5247 1 40.9837477934 0.256597486217 7.35568619244
185 1 3.23273011758 7.68319391189 3.95277967185
193 1 3.43307205201 4.94613134031 3.96533149644
206 1 1.1366325347 4.30542667637 4.06430012352
182 1 1.11365222466 6.83145505378 3.76880397566
392 1 2.22629468107 5.63796712791 5.80576544259
218 1 2.19974881719 7.88324447604 6.26106011227
211 1 4.72789025453 4.19972590417 5.6951551326
184 1 4.71873385751 6.73290675599 5.47497700792
192 1 6.81010145744 5.34842271939 5.06156037978
191 2 6.93992160308 7.85357172452 5.17030446203
210 1 6.23002552234 6.05581439366 7.32645988801
190 1 8.41318721106 6.99931431915 6.912161147
195 1 9.1099868722 6.20332778745 4.69876266312
213 1 8.43433624375 4.54350072536 6.87930851073
1526 1 11.3838783638 7.05117217221 4.27279061422
1544 1 10.7009560854 5.40841244301 6.45190028309
1550 1 11.4434581366 4.59530430186 4.24852289583
1543 1 10.6454855852 7.87218273873 6.45790665961
1530 1 13.6735310647 5.54181334494 3.70240554881
1528 1 15.1451078529 7.15613623794 5.42495154947
1549 1 12.9914096318 6.25434171358 6.01708390122
1555 1 15.1261007301 4.6740665999 5.3215065297
1359 2 16.7118471049 4.01358438171 6.82714588377