ITEM: TIMESTEP
44000
ITEM: NUMBER OF ATOMS
5376
ITEM: BOX BOUNDS pp pp pp
0.0 42.7297273569
0.0 39.5600404449
0.0 37.0050293879
ITEM: ATOMS id type x y z
5216 1 0.876251483465 1.1076521997 1.85061476166
4246 2 0.240156452882 3.50927917269 1.8307557794
5 1 3.74208201218 2.03040497134 1.66074448721
8 1 6.12163102822 2.7961110342 1.1875930076
9 1 5.9990597173 0.309816278947 1.18146555608
25 1 5.26898616498 1.16941879619 3.3696546043
4 1 5.47108609624 3.66730091614 3.42021661666
7 1 7.54777330143 1.95626585421 2.98273050223
10 1 9.81824192129 2.75113041607 2.62396562184
11 1 9.72488052777 0.287876490353 2.57854401013
12 1 8.2938024486 1.10011373025 0.807082586698
1347 1 10.528309647 1.97205515344 0.387474657782
1 1 8.42207727876 3.5716403592 0.868779016045
1349 1 14.0774297815 1.93681636183 1.74985279893
1363 1 11.9348908909 1.11247291005 2.18153681952
1346 1 12.0346908146 3.5972218118 2.20547174783
1369 2 15.5702926755 1.18115050454 3.42740092313
1352 1 16.1559334804 2.74404682896 1.41434751097
1353 1 16.5987843062 0.365176537332 1.31798311176
1355 1 18.2872604619 3.0920167518 1.06102410028
1371 1 18.0165982793 1.5068705827 2.92801583574
2716 1 18.9729556099 0.47163531695 0.806284895706
1348 1 15.7507639267 3.57337132476 3.69412082356
1513 1 20.3311996732 3.85573206579 1.42861638952
2710 1 21.7230124593 1.75476487072 1.37677642697
3878 2 20.3036187516 0.270290848942 2.60176686843
2863 2 21.3308336974 3.37552024914 3.38835224087
2694 1 24.7621040751 3.10737441153 2.25904522481
2699 1 26.2867094472 1.31998346808 0.426315278726
2698 1 26.3026236874 3.70515792835 0.429510522307
3868 1 26.8800545824 2.09005071241 2.66144178241
2709 1 24.2784058768 0.83711795075 2.47260576552
2693 1 23.8784379271 1.97936151787 0.239634215496
2697 1 28.4153995784 2.82947502988 0.843867743919
2714 1 29.0891950094 1.1978097682 3.02201370934
2717 1 30.6157287975 1.98773208984 1.26372945339
2718 1 28.414557534 0.364619479792 0.838681388903
2713 1 29.1265002441 3.6668015142 3.04767130602
4039 1 32.8471961787 1.14367722795 1.69962807868
4038 1 32.8391743274 3.62742614516 1.68386681979
2734 1 31.3283382045 0.346962197401 3.46390791804
2712 1 31.3589251623 2.81740410533 3.46386085473
4060 1 35.0845670099 0.316852781267 2.12783832418
4037 1 35.0883798452 2.79496463141 2.12110882816
4043 1 36.6029868173 1.17589226441 0.375731889638
4059 1 37.324215739 1.96922751026 2.57673961636
4042 1 36.5938096268 3.60422937785 0.359170625798
4041 1 38.8453855087 2.7424962681 0.805270203364
4062 1 38.8697654718 0.248599187472 0.815876999725
4058 1 39.5313669515 1.106758435 2.99781738301
4057 1 39.4751263569 3.58018921158 3.01479276238
4196 1 41.1082526331 1.8657819788 1.28172761778
4056 2 41.6646539499 0.473749203154 3.37253093559
17 1 41.7211939037 2.83566542827 3.50666968363
193 2 2.34841066201 5.76138231636 1.98139810503
187 1 0.272821729947 6.07077796801 1.54234775314
331 1 2.32241377028 7.65340137337 0.182163896139
173 1 4.17946588972 6.93973858432 1.71486556376
194 1 4.07080680598 4.43369581457 1.63462159566
177 1 6.22653986827 5.30010963168 1.29808728533
172 1 5.58588189427 6.13709602728 3.51961201058
176 1 6.32113977517 7.7858382535 1.29659427997
196 1 7.69688804352 4.43482605265 3.02959651804
175 1 7.77618086045 6.93281114509 3.09187802566
179 1 9.91293216124 5.2554389587 2.63723516121
180 1 8.46944330737 6.08395574075 0.861751171775
1532 1 10.6333555878 4.45703198646 0.415927956376
1515 1 10.6962964441 6.95570260117 0.43139437336
178 1 10.0184619449 7.73573463047 2.68647032744
1517 1 14.2971161236 6.89164789654 1.79389634965
1531 1 12.1188295228 6.08862565907 2.22013639738
1538 1 14.2408426465 4.40361662437 1.8146874859
1540 1 18.0049537304 4.18476133317 3.2253226464
1519 1 16.4847300546 5.09571703494 1.4512728269
1839 1 17.9787609835 6.65630601655 3.06722413009
1524 1 18.6756882045 5.73808920355 0.969925903074
1521 2 16.4133560887 7.47884776901 1.38064976707
1537 1 15.7350580621 6.03339744821 3.57191283842
1520 1 19.8348118498 7.82514187849 1.66655559767
2689 1 22.6130610623 4.30142767394 1.73650424575
2868 1 22.3991541711 6.92664721514 2.17664223046
2838 1 20.9861527203 5.84516709945 0.369820305438
1523 1 20.4201369396 5.68372493287 2.88249061416
2692 1 26.9173099013 4.57648611704 2.67537224689
2867 1 26.0419085525 6.18693589012 0.378946215641
2883 1 27.0286701584 7.03651978698 2.54181161635
2884 1 24.6722558516 5.48780274489 2.26171682142
2715 2 24.2354080222 4.33162627991 0.176592805681
2861 1 24.7898153238 7.83269947555 2.09836530079
2696 1 30.586402522 4.47568748714 1.2481549541
2882 1 29.1660712573 6.11112627982 3.00666463591
2885 1 30.6091294622 6.93939738874 1.22607794871
2886 1 28.3217986429 5.32480187738 0.80385430092
2865 1 28.4093467935 7.78626170592 0.740569631887
4207 1 32.8333109192 6.10081960004 1.66947770958
2880 1 31.355578553 7.75992422264 3.44412682806
2902 1 31.3745829544 5.2912054059 3.45194768579
4205 1 35.0405402083 7.72716211172 2.09771137303
4228 1 35.060453531 5.25901807479 2.11636080813
4036 1 37.2914313398 4.43257104871 2.56400890815
4211 2 36.5340606089 6.06942695008 0.348766834518
4227 1 37.2938693321 6.89334365154 2.54884374819
4230 1 38.7733077018 5.22749830393 0.792689994977
4209 1 38.6447052396 7.69426495595 0.663700403297
4061 1 40.9535249189 4.37005510053 1.26694875984
4226 1 39.5235600495 6.06504090919 3.00752464501
4397 1 40.832253507 6.83559053996 1.05701536148
182 2 41.6268926116 7.7670200351 2.86400421069
31 1 41.7045374592 5.30486150983 3.51957462081
4229 1 0.535781232008 8.60316949447 1.52981360705
374 1 0.38050119369 11.1023409785 1.31706652281
181 2 2.00874614923 10.1454792591 2.39248266178
341 1 3.97473225638 11.8162373105 1.8939677977
355 1 4.01939125625 9.33733570134 1.78089706675
361 1 5.57766076507 8.64111638316 3.57230783882
345 1 6.23933142111 10.2285764782 1.4665794951
353 1 5.48566806551 11.0862858387 3.67218666329
343 1 7.77104129205 11.8593321529 3.11069464791
364 1 7.79935160759 9.39937390367 3.13725986734
169 1 8.58187100608 8.55360118187 0.949424139133
347 1 10.0293696234 10.2227686624 2.66520397152
348 1 8.51872231704 11.0330763407 0.919383513405
1700 1 10.7871126506 9.42993761211 0.458935926987
1514 1 12.2406615013 8.57248725785 2.23136392754
1699 1 12.2813204544 11.0529080788 2.24676362818
1706 1 14.4719208084 9.36817979144 1.82118863563
1844 1 13.0575392276 10.2756562962 0.0392385416203
1685 1 14.5417442391 11.8350701497 1.85165533502
1689 1 16.7025190299 10.0552508436 1.59947173966
1848 2 18.8586555201 9.8320875722 1.31973704635
1516 1 16.0192596268 8.55000662813 3.57729921952
1688 1 18.3337889046 11.5199206019 3.30757065556
1708 1 18.5020568287 9.13374731011 3.61112854786
1705 1 16.0382709193 11.0159998493 3.68607481643
1680 2 21.5727298775 7.99078446194 0.312197275029
1692 1 20.5717383491 10.3361937987 2.95701280586
2010 1 21.0127691977 10.1701177547 0.149069931232
3031 1 22.5133336024 11.2183836966 1.8256890777
2859 1 23.0253234822 9.39330887475 3.55043062436
1842 2 20.9019605154 8.25191077963 3.61393938839
2862 1 23.4379539933 9.06447962503 0.520810110874
2860 1 26.9287258825 9.49997939046 2.6236432283
2866 1 26.2669306194 8.63307159701 0.512563429135
3035 1 26.1834225807 11.2545839483 0.389531445607
3052 1 24.7246100583 10.3265436855 2.13259920214
2864 1 30.5732046272 9.41018190724 1.19464575548
2881 2 29.1853679931 8.53579986308 2.94148611439
3054 1 28.3495399636 10.2529977446 0.781653361316
3050 1 29.0078765047 11.0594235315 3.00930336986
4206 1 32.8060958036 8.57004498506 1.65167939787
4375 1 32.7256431199 11.0500597306 1.63621095145
3070 1 31.2529312365 10.2268392836 3.42470386829
4396 1 34.9493307252 10.2105495227 2.06136402633
4204 1 37.1414039592 9.35272983002 2.44221666836
4210 1 36.4505616676 8.55140369491 0.275497986664
4379 1 36.4740381493 11.0263675833 0.305797914667
4398 1 38.7106444526 10.1657882405 0.697738196283
4395 1 37.1728618792 11.8306087889 2.50929761958
4225 1 39.3140288909 8.48178769392 2.76966268055
4394 1 39.2930630896 10.88356724 2.87536742864
4208 1 40.9927513572 9.46728701144 1.22217197021
4224 2 41.4475216719 11.3464313437 3.2048568862
170 1 2.27179191554 12.9230319194 0.125067564847
4392 2 0.306167402898 13.3651996329 1.37758924037
4582 1 2.00940036322 12.7233983735 2.62079191197
4376 1 1.53610486926 15.5424677424 1.62277550902
530 1 3.89584908452 14.3470615918 1.87149635487
344 1 6.24522595803 12.663671739 1.3502713217
513 1 6.24825186868 15.145633121 1.35128924156
340 1 5.58759625101 13.4776174009 3.47390511784
1683 1 10.7943531973 11.8708712567 0.48186484987
532 1 7.81769063029 14.3366468125 3.0785533368
337 1 8.52445581134 13.484877084 0.931765522796
346 1 10.0472110602 12.6813874161 2.68277932231
515 1 10.0522722914 15.1555942409 2.66374388714
1868 2 10.7760274163 14.2608822527 0.584185857227
1682 1 12.3318405838 13.5050401771 2.27478178219
1874 1 14.5828938993 14.3078911552 1.82358864712
2012 1 13.0444247264 15.1642817953 0.0405665828211
1843 1 13.079226051 12.7315468344 0.0649392414127
1876 1 18.8646066617 12.0425153774 0.922122643627
1857 1 16.8487809102 15.0885354204 1.32063019195
1833 2 16.694027041 12.6284644536 1.7408511767
1855 1 18.4283736003 14.0729861228 3.03129824058
1681 1 22.4061440173 13.7790976174 2.82711194101
3030 2 20.5168735312 12.4990686243 2.64959818294
2016 1 21.4837380989 12.535476284 0.155453191822
3175 2 23.231993637 13.8696155811 0.7595715208
1859 2 20.5128880997 15.5215596977 2.654592846
3051 1 26.7685797511 11.9379338671 2.61156955141
3028 1 26.6677047713 14.3258182819 2.57273169288
3029 1 24.5155370164 12.6509667015 2.18983887658
3034 1 25.7345575815 13.6059648394 0.31605375628
3220 1 24.4422740508 15.2405477809 2.2778611833
3053 1 30.4806469938 11.8707563226 1.22040653473
3032 1 30.5109220579 14.3498478045 1.22670313342
3033 1 28.230380642 12.7056160515 0.815597277908
3222 1 28.2694380745 15.1471151527 0.852726192379
3049 1 28.9784927848 13.5349286217 2.99158549038
3048 1 31.2234836902 12.7047042822 3.41525923095
4374 1 32.7475665197 13.5350373543 1.6495530111
3238 1 31.2593786926 15.1844661809 3.42235210322
4373 1 34.9742226918 12.6997529293 2.07124022574
4564 1 35.0383932662 15.1826589746 2.08523706824
4372 1 37.3009803787 14.2933526118 2.54625635964
4378 1 36.5115660486 13.5282181426 0.318904613933
4377 1 38.701310503 12.6745938833 0.808610659266
4566 1 38.7394249215 15.1217354178 0.776481854869
542 1 40.8742815944 11.9289121019 1.10101552369
339 1 40.9587378202 14.4283197474 1.24150639794
4393 1 39.6216676343 13.3242504506 3.0834776387
349 2 41.4220521124 14.8593899591 3.62715067175
4562 1 39.4217429397 15.8084254993 2.97235631824
4703 1 1.7508842453 18.105607684 2.35490868006
4694 1 1.56373619379 19.4518867098 0.261596177505
523 1 0.304129911571 17.1297701356 0.0599202166141
698 1 3.94436128618 19.4158073912 1.23555248585
509 1 4.05655726195 16.8439034048 1.65705739958
508 1 5.53669372412 18.4396713678 3.44297836011
512 1 6.28774154646 17.6411120908 1.25835198083
511 1 7.76033394524 16.8042889652 3.06719657369
529 1 5.52208144553 15.9630173371 3.53499408056
700 1 7.77620480727 19.2863839252 3.09888483913
516 1 8.55275046161 15.9605497601 0.899400311706
505 1 8.56701289183 18.4408685285 0.920233382208
514 1 10.0484170624 17.6217888986 2.65038666686
1851 1 10.8293912286 16.7770741698 0.479043441348
2036 1 10.8143149352 19.267675499 0.458398144106
1850 1 12.3060257933 18.4637599192 2.20857796571
1853 1 14.4860960156 16.7823751736 1.77930295679
1867 1 12.2854882853 15.9678751866 2.22991254952
2042 1 14.6001377854 19.3032333293 1.79049188626
2011 1 13.0538798279 17.633079186 0.0149997767992
1852 1 16.050216844 18.4564432131 3.57861236909
1873 1 15.9967739747 15.977330877 3.51944066256
1856 1 16.6529900131 17.5349058097 1.35488943879
2044 1 18.2024274372 16.5519796388 2.86959362342
1849 1 18.8003990338 18.1501414955 0.755993990404
2023 1 18.3258336805 18.8841254166 3.53695745077
3194 1 19.3648073297 15.9429007412 0.7094584223
3037 1 22.3544481698 16.3086306594 1.54741312825
3198 1 22.4893899274 18.9711625344 1.83542221685
3209 1 20.5383446355 17.8388084202 2.48380408575
2027 1 20.9326450919 19.7280393576 0.330845693087
3199 1 23.5023475918 17.6300806883 3.34012531315
3203 2 26.1754864148 15.8523701377 0.403829065303
3197 1 24.9421389596 17.5496111359 1.56202094176
3219 1 26.815670442 16.7536349105 2.72806519441
3202 2 25.8558215085 19.148226291 0.215448335072
3196 1 26.7941133631 19.3436074542 2.55374199222
3218 1 29.0267663117 16.00204779 3.01584090922
3200 1 30.4640959837 19.3113189096 1.22506862243
3201 1 28.0143909399 17.6791801857 0.780285623807
3217 1 28.9850225258 18.4732885609 2.96736712363
3221 1 30.452673847 16.8528188665 1.25323293908
4543 1 32.7595111388 16.0265468269 1.66667449825
4542 1 32.7666996719 18.5123658243 1.71079265237
3216 1 31.2567295006 17.6422277648 3.4300588986
4541 1 35.0421628277 17.6736695134 2.10233619214
4547 1 36.5846416713 16.0254405743 0.32261685783
4540 1 37.2267922349 19.2564309293 2.57810910864
4546 1 36.6078566548 18.4846531823 0.333417307906
4563 1 37.269250986 16.8009771324 2.5423595987
4545 1 38.8537262925 17.6497414069 0.782061965751
4565 1 42.1380371536 16.7749671147 2.52635450646
4561 2 39.2151503065 18.2887556941 3.24785547048
651 2 41.0826627892 17.9565759877 0.809007009639
4544 1 42.4257475143 19.5301932681 1.81821464433
4750 1 2.04391365718 20.6156072424 2.23051144139
691 1 1.88934585963 22.9694042127 2.36430700897
860 1 0.390099654045 21.8221363668 0.913776355161
677 1 4.07076629726 21.8013811957 1.85259190407
680 1 6.25441788034 22.6285448231 1.33982803623
681 1 6.27532919648 20.1075437826 1.32742916155
697 1 5.54652585265 20.8769680954 3.51022933613
676 1 5.45825689756 23.3707067219 3.57323804185
679 1 7.75680701916 21.7596150281 3.09682310296
682 1 9.99931135476 22.5951402023 2.68071978495
683 1 10.0316139748 20.1138340111 2.66041676769
684 1 8.53378022194 20.9417269293 0.903962980639
673 1 8.49025150292 23.4334970548 0.933227692275
2019 1 10.7818390593 21.7661931714 0.482424772833
2021 1 14.581080501 21.7834556286 1.79489942191
2035 1 12.2973739068 20.9502972817 2.22461266334
2018 1 12.2560244496 23.4271485602 2.25637733346
2180 1 13.0782074212 20.1177376335 0.0246707383076
2179 1 13.0259573411 22.6037482728 0.0568547985148
3026 2 19.1997516524 19.9464653001 1.87638231755
2025 1 16.9168443082 20.1744182064 1.37454005528
2024 1 16.8099120946 22.7186777892 1.36546834466
2041 1 16.0732414699 20.9691557441 3.5640655375
1854 1 18.3201260275 21.9131171365 3.10336722428
2020 1 16.0499223177 23.4832540498 3.5806868803
2212 1 19.5931213678 21.8041458931 0.860902460859
3377 1 20.8790526993 20.3914775696 3.23291451391
3373 1 20.636462195 22.897766127 2.91571156571
3363 1 22.3631819369 21.7176814613 1.64289011689
3367 1 24.6081975149 20.044456067 2.00499336449
3365 2 24.255154562 22.1375745725 2.93295357665
3387 1 26.7096493705 21.8881694528 2.59842024041
3371 1 25.9801573535 21.3190153296 0.31375080486
3508 2 26.0713172773 23.6268213998 0.489541379697
3390 1 28.2017282797 20.1887264322 0.805193779015
3369 1 28.2858453934 22.6311795032 0.841809102791
3389 1 30.5183262143 21.7742486417 1.2726417257
3386 1 28.9615045585 20.9856446828 2.98094112118
3385 1 29.0396087462 23.4425027454 2.97986196006
4711 1 32.7680621169 20.963840478 1.72199477649
4710 1 32.7881142024 23.4076821468 1.6794347024
3384 1 31.3095897054 22.5730464963 3.4231401092
3406 2 31.1568348741 20.056936048 3.3986947504
4732 1 35.0065846473 20.1274532487 2.12778610781
4709 1 35.0896201566 22.5801767611 2.08354309443
4715 1 36.5013711406 20.9486383926 0.330079570432
4714 1 36.5214319761 23.4174516067 0.308357102472
4731 1 37.3397603016 21.7095177281 2.54269923859
4734 2 38.5739529194 20.2209061376 0.828621260556
4713 1 38.7138606743 22.6692315616 0.810363175724
4918 2 42.2004411226 23.1309236268 2.46010933159
4733 1 39.6094880889 20.7651688539 2.93808128623
4729 1 39.7103095275 23.2680242599 2.91213370631
675 1 40.8357652321 21.6178795178 0.725971103046
686 2 2.0116325674 25.1400089592 2.30780838108
878 1 0.871601848177 26.4812288703 0.964042894714
845 1 3.76739082484 26.7648638217 1.79567587695
866 1 4.01412532698 24.2119327185 1.78139729088
849 1 6.15061896861 25.139924524 1.39566440246
848 1 6.12910981255 27.5761868044 1.47744551495
847 1 7.73257523888 26.6745760657 3.1531225081
868 1 7.67364890749 24.2408760673 3.12933513951
865 1 5.4307883505 26.0383965674 3.59320842206
851 1 9.92580703642 25.0714070061 2.70849986498
852 1 8.41389471279 25.9068767971 0.942170364106
2204 1 10.7307217073 24.2509683088 0.505417449039
2187 1 10.6609589987 26.7223418097 0.501104006143
850 1 9.91366828845 27.5566146587 2.69166673231
2189 1 14.3424698261 26.7344688465 1.81610933712
2203 1 12.1602861212 25.8940327062 2.2733690524
2210 1 14.5193560953 24.2779541226 1.8289995929
2348 1 12.9714105749 25.0903527529 0.0757640699957
2347 1 12.8777409458 27.5616304874 0.0271110335784
2017 1 18.9113319401 23.9597434431 0.985805379671
2022 1 18.1774376528 24.5361585358 3.11904063958
2193 1 16.7863292987 25.2183739096 1.31323492953
2209 1 15.9079791855 25.9442718654 3.58841407216
2195 1 17.8361945938 27.0824036462 2.81881560757
2192 2 16.3174065726 27.6166210831 1.20666514871
2352 1 19.5480025323 26.336791012 1.24025099485
3530 1 21.371738561 23.8682530776 0.718292976823
2026 2 20.5804840341 25.0590387176 2.69281476311
3556 1 23.1887807599 24.1970483374 2.81331020735
3708 1 21.9770573695 27.4947472413 0.297889072182
3534 1 21.3368631734 27.5135262761 2.80814068125
3540 2 23.3953384894 25.3735737459 0.88522190098
3364 1 26.8240566312 24.4064011395 2.56052020259
3539 1 25.7323521937 26.1071773732 0.433391230255
3555 1 26.7993706993 26.8289017085 2.51200822325
3533 1 24.132126866 27.4585833449 2.03631449163
3368 1 30.4759236664 24.2255423572 1.16981547878
3554 1 29.0312754388 25.8934552771 2.94242760299
3557 1 30.6001676999 26.6789001316 1.23912726541
3558 1 28.1293249344 25.0989119703 0.586991127134
3537 1 28.4290320546 27.5480114303 0.875043365461
4879 1 32.8403339619 25.853156174 1.64877378721
3552 1 31.3502743704 27.5078175505 3.44010257579
3574 1 31.311829997 25.0281767693 3.39057947047
4877 1 35.1207602786 27.4960059098 2.09227197899
4900 1 35.1174156674 25.0289906952 2.0811586208
4708 1 37.4222615594 24.1890002505 2.49967532621
4883 1 36.5979676395 25.8669288329 0.315171611648
4899 1 37.4196786021 26.6603901335 2.51521516535
4881 1 38.8591250559 27.5031865053 0.718876752795
4902 1 38.8943384948 25.0409417313 0.709546737816
4712 1 41.1350069394 24.1356177666 0.857356373674
4901 1 41.1473202592 26.6561254574 0.966197937246
4898 1 39.7500952126 25.8495896993 2.88942375462
1027 2 1.71566938489 28.1039766887 2.49622117156
5207 1 0.57877249984 29.5022963469 1.2737250921
1034 1 3.49626815339 29.509523399 1.37843579176
1045 2 1.86933905826 31.3934985209 2.05912400035
1017 1 6.03578902636 30.0123067056 1.4574449327
1033 1 4.97455438174 30.9648798615 3.53192539096
844 2 4.67514818219 28.5743203236 3.1847716883
1015 1 7.41932825699 31.5906362058 3.12217828592
1036 2 7.81289274351 29.1768886042 3.02397958436
841 1 8.37652330727 28.3591484241 0.889433545045
1019 1 9.90091914751 30.0269702459 2.67551840927
1020 1 8.36389974279 30.8204026149 0.927800903431
2372 1 10.6514532119 29.1915068807 0.478952461343
2186 1 12.1719090967 28.3817617738 2.23809111755
2371 1 12.1336953597 30.8506916054 2.2354027017
2378 1 14.4216229922 29.2535675892 1.75426577437
2516 1 12.8675366897 30.0184045986 0.0393454836947
2188 1 15.8085812725 28.4866973363 3.51928638941
2377 1 16.0114268057 30.9382676597 3.52884318736
2360 1 16.8344496862 30.1164611431 1.30492194247
2361 2 18.0498457676 29.2954271974 3.29399486155
2358 1 18.5887153528 31.4080116619 3.01690714185
2191 1 19.6339628491 28.8291558123 1.47028684067
2363 2 20.4341326341 31.0371829868 1.53105474558
3531 1 22.2840912711 29.4938808521 1.60171993019
2682 2 23.0259634171 31.1389087673 3.18754384161
3532 1 26.8937452176 29.2644235972 2.72967447919
3538 1 26.3237913079 28.4156485329 0.555727258953
3707 1 26.1398608824 30.8191813662 0.548050773825
3724 1 24.6693558214 29.8460894673 2.27189882026
3709 1 23.9461018834 31.4083464273 0.12234345036
3529 1 24.171124754 28.628238048 0.0372182244895
3536 1 30.6051406491 29.168334706 1.25798279513
3553 1 29.1259663282 28.3759584545 3.05084035222
3722 1 29.1190476694 30.8778836127 3.06012108075
3726 1 28.38808709 30.041239162 0.906833826178
4878 1 32.8524621587 28.3304333227 1.67602650239
5047 1 32.822475054 30.80993416 1.68233703833
3742 1 31.3503456047 29.9897624224 3.46185362247
5068 1 35.0760514122 29.975009047 2.1054190057
4876 1 37.3485069495 29.1413812555 2.52984974905
4882 1 36.5795907532 28.3373682223 0.316406512825
5051 1 36.5210436062 30.8209929103 0.328883625508
5070 1 38.7684650688 29.9864056306 0.751889295531
5067 1 37.2716180991 31.6089577809 2.53690019554
859 1 42.0339472239 27.7166389968 3.05153746235
4880 1 40.9655935757 29.0858489107 1.04694139937
4897 1 39.638919727 28.3631652906 2.9316255089
5066 1 39.570278934 30.8367057892 2.90733271102
5086 2 41.799788159 30.0420917933 3.14451980211
1010 1 41.2445301638 31.5001358795 1.02037144376
5048 1 0.433882073372 33.4082402864 2.05777847961
1171 1 1.10522555008 32.0301314318 0.106144073675
1178 1 0.835748909521 35.5390206712 1.21966469653
1013 1 3.85188635553 31.9150616897 1.34902449885
1202 2 4.05522001337 34.1004183132 1.37398129285
1016 1 6.13599893397 32.486400717 1.3504449658
1185 1 6.12146769331 34.9642276519 1.16813730199
1204 1 7.46493566247 34.1063164044 3.08900870176
1025 1 5.10662348137 33.400336284 3.52846014296
2355 1 10.632105817 31.6654783064 0.470431954806
1009 1 8.33627773182 33.3040607866 0.882429220242
1018 1 9.73118242277 32.4647862681 2.66809903434
1187 1 9.73098171547 34.9240997767 2.57805172486
2540 1 10.5827047415 34.1359777285 0.403457353695
2357 1 14.443351088 31.6898642469 1.82175402541
2354 1 11.9879694483 33.2854312378 2.20363848974
2546 1 14.1749662749 34.1180116856 1.71627078207
2515 1 12.9073356297 32.4831543713 0.0295329339954
2356 1 15.475909722 33.4280598066 3.54328427032
2688 1 16.9175324222 32.7180279257 1.75481115608
2529 2 16.2451019253 34.9606041543 1.51788421962
2527 2 18.8015626713 33.7697926819 3.01758080955
2673 1 19.3148411199 32.8435967893 0.823671044532
2531 1 22.2320530037 33.0266890641 1.65971638768
2532 1 20.1242766418 34.9543395799 1.74514109615
2362 1 20.8348110851 32.6129669415 3.44814184353
3702 1 22.3649138403 35.4145689719 1.8576343367
3723 1 26.8139932532 31.6590394471 2.76497073399
3700 1 26.8400721609 34.1503832739 2.63418087703
3701 1 24.613180271 32.4177722785 2.26857029478
3706 1 26.0806817954 33.2504572327 0.511202715499
3892 1 24.5556723177 34.8227688714 2.23126278792
3697 1 23.8339385071 33.835076965 0.0945062597077
3725 1 30.5759299039 31.6537010398 1.2792319082
3704 1 30.5315828012 34.135960791 1.32420533598
3705 1 28.3291316875 32.5217473938 0.93924994415
3721 1 29.0446639028 33.3241326519 3.12108746111
3894 1 28.2712492762 35.023531891 0.935017662438
5046 1 32.7817183558 33.2897835622 1.70128914403
3910 1 31.2914897579 34.9574795148 3.49394887588
3720 1 31.300582475 32.4673076024 3.48965716589
5236 1 34.9789296095 34.9640415601 2.08074699553
5045 1 35.0388299096 32.467210803 2.10792463459
5044 1 37.1161979767 34.1336988053 2.52647492354
5050 1 36.4671302371 33.3156671145 0.307940972272
5049 1 38.7306732225 32.4185571736 0.764907070087
5238 1 38.6487393403 34.9103728612 0.77797658789
5065 2 39.1503055118 33.3326696203 2.9301894653
5237 1 40.8465987573 34.0172456661 1.44834635023
5254 1 41.9047177993 35.2492673605 3.3609400771
5064 1 41.3872661566 32.4952901316 3.41567444471
1339 1 1.51926023244 38.3618871621 1.08968362708
1181 1 3.6382340039 36.5341153763 1.76007360117
1190 1 1.60471292981 35.7494618566 3.60503722458
26 1 3.6392049634 39.2855616544 1.71256398418
1193 2 2.7613531085 37.9396162004 3.60861663585
1201 2 5.6186985188 35.8885222855 3.22389079923
1184 1 5.91307400077 37.4369593336 1.18020731408
1180 1 5.15279652871 38.2869299739 3.291585208
28 1 7.45303883567 39.0981427404 3.00959240567
1183 1 7.63061436193 36.6499639431 2.92707325966
1188 1 8.36218220976 35.7536086661 0.772984303108
1177 2 8.23955574701 38.1653878301 0.903545327167
1186 1 9.82931583044 37.4023055334 2.56608241018
2523 1 10.5497064376 36.6349649346 0.336579647194
1364 1 10.5330497143 39.0722063028 0.378994350359
1370 1 14.2960081527 39.0705018244 1.72830380693
2539 1 11.9771182237 35.757875942 2.1160024595
2522 1 12.033867401 38.2364685606 2.12673028366
2525 1 14.1901108552 36.6248657205 1.68646149483
2545 1 15.5404603866 35.9331507639 3.47116766028
2521 1 18.7616976318 37.1937887136 0.79659606968
1372 1 18.059257267 36.1181914488 3.10119358523
2528 1 16.4842473645 37.4426839299 1.35787773571
2524 1 15.8174719734 38.3298059314 3.47288951124
1351 1 18.2408329388 38.4900976309 2.85940278409
2530 1 20.3958679253 37.3126294287 2.75175460379
3865 2 22.3966488523 37.6116576608 1.48992060314
3013 1 20.935290651 36.6741361866 0.10089560586
2700 2 24.8652001814 39.2869992035 0.732470196703
3875 1 25.8222495907 35.6730381028 0.398319103781
3869 1 24.6514369985 37.2734450615 1.95356907581
3874 1 26.5348270569 38.0495618718 0.239655957117
3891 1 26.8450947239 36.6324757661 2.54634013748
3885 1 26.7081958524 39.1734138932 2.50736355714
3890 1 29.0710122711 35.8165082288 3.08642182876
3872 1 30.5910906979 39.0763993018 1.27376608049
3873 2 28.5354590589 37.4280857812 0.975313913751
3889 1 29.0410810515 38.3221347652 3.05648815052
3893 1 30.597250045 36.6009069533 1.30662249691
5215 1 32.7655285148 35.76093833 1.71999319332
5214 1 32.804671353 38.2326628111 1.6931550828
3888 1 31.3175402725 37.4421491016 3.49366446145
5213 1 35.0245137493 37.4148497863 2.09978533339
5219 1 36.4631376574 35.8277893109 0.333539382298
5212 1 37.344032028 39.0586600953 2.60363914148
5218 2 36.5879436563 38.4075046487 0.497145546633
5235 1 37.23642965 36.6028042334 2.51929371514
5217 1 38.7671168925 37.3702606398 0.805827903556
5234 1 39.4248320729 35.7181413096 3.0169096428
4078 1 41.2373067129 38.9301864874 1.30475223919
5233 1 39.5826840417 38.182278981 2.99418708415
1179 1 40.8932157773 36.4063681393 1.26388918101
5232 2 42.6950843565 37.2242193427 2.35680476009
1207 1 2.85260329048 0.731188223422 3.94040209443
186 2 3.31275218677 3.0748331123 3.73586123462
18 1 2.97334849025 0.630725013672 6.70404758453
37 1 2.36976376698 3.13213177225 5.9040172531
32 2 1.16870799331 1.28601650178 5.49209681902
16 1 4.68782584197 1.90050830076 5.54637258405
23 1 6.87812601046 2.74661356778 5.19899522501
24 1 6.66890215532 0.282891669779 5.22238684283
15 1 6.22586521181 3.48396914497 7.39365427295
22 1 8.23264878515 1.92967549939 7.01937717248
27 1 8.98021261843 1.1074772782 4.79372170395
1375 1 10.5264538345 2.77450151082 6.62463093777
1376 1 10.5323784858 0.333980745619 6.53988901972
6 1 9.11127004515 3.58898271488 4.82790224277
1358 1 11.2486623379 1.94099794792 4.40826372055
1361 1 13.472489319 2.77435115452 3.99666850529
1362 1 13.4631794037 0.282808088591 3.95240138364
1381 1 12.7616155949 1.13883510307 6.148723335
1357 1 12.7519015085 3.62494753024 6.21258563839
1360 1 15.0058524739 1.87327320958 5.67254521463
1359 1 17.1911174141 0.382138924231 5.15360365941
1554 1 17.0376632277 2.93366073802 6.27122245457
1368 1 18.6890834577 0.80262819452 7.06191887066
1367 2 18.7749548391 2.22973852431 4.89514360373
2706 2 20.9796071607 0.549824946631 6.56937888547
2691 2 21.1237255537 3.50511413214 6.74383901962
1354 1 23.1700878498 2.31370107423 3.92980117296
2711 1 23.6869955532 0.571902427367 6.21079974681
2731 1 23.7772590164 3.07951096026 6.17772657863
2695 1 25.3499769456 1.30815409677 4.47556220956
2730 1 26.0617762047 2.12088737701 6.59639228662
2704 1 25.3303677638 3.79815363593 4.44695490714
2733 1 27.5593671073 0.395193233805 4.74660966851
2708 1 27.6042382874 2.89303142014 4.83755153078
2732 1 29.8448775006 2.01830109962 5.22721168948
2729 1 28.3221895781 1.21767652446 6.97555227024
2728 1 28.4033827903 3.69332992303 7.01820635831
4055 1 33.5953803955 1.96644428514 3.89185644498
4048 1 34.347820274 2.77337322686 6.08979012906
4050 1 32.0850157163 1.16592871936 5.66096595579
4075 1 34.3189574925 0.30651024593 6.0895961699
4049 1 32.1227831755 3.63648594516 5.6667960651
4052 1 38.0882094016 2.72292440036 4.79407521361
4053 1 35.839217332 3.58586994933 4.3282068576
4054 1 35.8356785566 1.11294762915 4.32995572301
4074 1 36.5823735428 1.92003880658 6.54066150695
4077 1 38.0815271548 0.259367014195 4.78200208346
4072 1 38.7994737307 3.487669377 7.01017575465
4073 1 38.8393931324 1.05798408376 6.97927643057
4076 1 40.3403908484 1.82174610289 5.23297237794
5247 1 41.1460071233 0.273743912836 7.34666339109
1208 1 42.662423564 3.45798878059 5.67475339853
14 1 1.18462410002 4.51234161536 3.88688890985
206 1 1.06915726926 6.92627593474 3.82833794808
392 1 3.2961321812 5.5208948424 4.11386199117
13 1 2.25485933964 5.49053645387 6.33407691566
185 2 3.51491060765 7.90189606628 3.93814533038
218 1 2.22500429795 7.88939270177 5.76330340096
211 1 4.70463708569 4.33828705769 5.63252010472
184 1 4.75038895301 6.80983402199 5.69571209561
192 1 7.00240095965 5.2118895514 5.22631456969
191 1 7.00582901309 7.69929165843 5.34200719464
190 1 8.53644517167 6.90252638762 7.08888937557
195 1 9.23036465184 6.07482942842 4.86652899811
213 1 8.42975351529 4.41890272053 7.04262478709
1526 1 11.467407453 6.92123311221 4.45310559143
1544 1 10.6904803006 5.25704914971 6.66317894908
1550 1 11.3320244141 4.43264235108 4.42470178019
1543 1 10.7343641952 7.74324504997 6.66008255281
1530 1 13.5557279768 5.24956395404 4.02547822568
1549 1 12.9164967348 6.11821719444 6.22605551104
1555 1 14.9441221407 4.36585370956 5.85413800514
1528 1 15.2109533484 6.8742998991 5.80672916206
1529 1 13.7171666653 7.7429794884 4.00884026666
1536 1 17.0702718654 5.2940070596 5.44820079543
1535 1 17.4139537838 7.59056360137 5.22076154459
1522 2 19.2085234287 5.64665092661 4.77209665451
2874 2 21.9248326093 6.35843442938 6.00221240489
2873 1 23.0434626011 4.90791856697 4.02445615327
1350 1 20.1605110594 5.50099944092 7.32894858697
2879 2 23.7672890271 7.18358479712 3.92006987422