ITEM: TIMESTEP
40000
ITEM: NUMBER OF ATOMS
5376
ITEM: BOX BOUNDS pp pp pp
0.0 42.7297273569
0.0 39.5600404449
0.0 37.0050293879
ITEM: ATOMS id type x y z
5216 1 0.350078763844 0.906722316184 1.68594973891
4246 2 0.219701466607 3.35263059443 1.63958728767
1207 2 2.24980870999 0.464736225934 2.66944996173
186 1 3.26586863899 2.46338475743 3.68211877077
5 1 3.97559707072 1.86346276983 1.5306170496
8 1 6.22433775096 2.75964902501 1.22282677209
9 2 6.13164660173 0.248709201066 1.14370625767
25 1 5.47863709193 1.11153281959 3.40203471893
4 1 5.46384851641 3.52668501633 3.40145446181
7 2 7.76097852427 2.07838383861 3.08532321562
10 1 9.97974108307 2.84257199901 2.61971470711
11 1 9.89533991763 0.371109151721 2.62532019887
12 1 8.43659634316 1.16741955489 0.862142214504
1347 1 10.6773956141 2.02850240639 0.418602194887
1 1 8.48799314869 3.62083469545 0.871869749557
1349 1 14.3382752901 2.08721629642 1.80245179889
1363 1 12.1193900482 1.20831948951 2.21263654042
1346 1 12.2329910029 3.69235810987 2.19218674595
1369 2 15.5041607175 1.11942308678 3.66592182645
1508 1 12.8989419542 0.424969636626 0.0126085841689
1352 2 16.5377884274 2.98520405349 1.35634661726
1353 1 16.5231472275 0.54139017561 1.42883701401
1355 1 18.7278457038 1.59760137564 1.34485044926
2998 1 18.7297630675 3.90775734794 0.460940651045
1513 1 20.1642291105 3.36887500058 2.36775107702
2710 1 21.6250343348 0.928177272236 2.13464245498
2689 1 22.5108832162 3.43194650643 1.85513461899
1490 1 20.9138858946 2.18890187539 0.322714879872
2694 1 24.7676376573 2.81208426874 2.0384343344
2699 1 26.012521998 1.15011106859 0.343265504137
2698 1 26.1115741857 3.66832570171 0.325190965332
3868 1 26.9264843072 1.93907382246 2.52602779584
2709 1 24.4976245837 0.343142514822 2.05252018199
2697 1 28.3603746238 2.80553434229 0.804515220571
2714 1 29.1207892503 1.12755904225 2.99983127608
2717 1 30.5962055533 1.96420235934 1.26613409894
2718 1 28.2956380674 0.318687705003 0.825250405223
2713 1 29.1344279689 3.62126573157 3.01029623166
4039 1 32.8345873545 1.12876066178 1.71656232051
4038 1 32.8463763817 3.61740304741 1.7171911694
2734 1 31.3446515061 0.312955507208 3.46804675533
2712 1 31.3635828801 2.79745644305 3.47089399985
4060 1 35.0665753796 0.299172416231 2.14685041323
4037 1 35.0725416673 2.77540951325 2.157477601
4043 1 36.5693621743 1.14696051519 0.395182084166
4059 1 37.306731963 1.94485837764 2.5911107294
4042 1 36.5301091568 3.58106431159 0.390904700451
4041 1 38.7769719924 2.73318333114 0.801654171111
4062 1 38.8326372719 0.260978232464 0.809617983099
4058 1 39.5152055456 1.07950138728 3.01107990345
4057 1 39.5121728553 3.51455170617 3.02308830338
4196 1 40.9576732451 1.8778296014 1.25220002541
4056 2 41.6643232459 0.306511903757 3.50235806412
17 1 41.8390449556 2.69467634713 3.53425947792
193 2 2.38684206777 5.50170260453 1.77226033802
187 1 0.300973210596 5.99347880917 1.56494306794
14 1 1.29527661885 3.9788808923 3.54466530145
331 1 2.35625595489 7.44783792703 0.127628754538
173 1 4.24038827339 6.71045149106 1.55030673649
194 1 4.12715824238 4.20487650917 1.52390544148
177 1 6.27819734526 5.24109830532 1.21007558829
172 1 5.62310900625 5.96948578662 3.43309780442
176 1 6.37807246533 7.74747528801 1.17398469388
196 1 7.70684803188 4.47884423301 3.03153496903
175 1 7.78561147613 6.94197882013 3.0258823221
179 1 9.97634183624 5.30726369016 2.62667984943
180 1 8.53952341653 6.10220438756 0.843542816444
1532 1 10.7282141026 4.50230287758 0.427203719482
1515 1 10.7818543224 6.98728288501 0.437621044141
178 1 10.042338577 7.78601311164 2.66297344897
1517 1 14.4501239819 6.98996348064 1.73117799625
1531 1 12.2284768432 6.1650373987 2.19652901055
1538 1 14.5583920378 4.55131693621 1.80405359809
1676 1 12.9849741343 5.34572244565 0.0168129344414
1540 1 18.0047398078 4.0447346758 2.89943093866
1519 1 16.9290968676 5.55323696817 1.1750799778
1839 1 17.9302209662 7.11529678946 2.97691271085
1520 1 18.7399674913 7.67121202014 0.699814504903
1537 1 15.8806289284 6.18506862617 3.42147330217
1524 1 19.4956777084 5.76197059117 1.86631162771
2868 1 22.4783098234 6.18380210414 1.74869817953
1680 2 20.8482151455 7.19762133587 0.384636518635
2838 1 21.1188235447 4.74325492785 0.507688071052
1523 1 21.0523762339 5.23535744672 3.5336339628
2692 1 26.89477886 4.40007587399 2.54886648388
2867 1 26.1926104814 6.1579170895 0.371514528768
2883 2 26.9461079439 6.83984984524 2.64583915197
2884 1 24.6845530827 5.24018863909 2.07473106205
2857 2 24.0960212672 6.95987188513 0.0689920204091
2861 1 24.7052640784 7.67390223848 2.15430339946
2696 1 30.6151101996 4.45690594473 1.26674981469
2882 1 29.1348899655 6.10679392764 3.01494457518
2885 1 30.5317324777 6.95589887167 1.2311039941
2886 1 28.3872275397 5.29224873351 0.828849309813
2865 1 28.1724300862 7.81475370117 0.760367637516
4207 1 32.7981390968 6.1015541707 1.69487318243
2880 1 31.2835250223 7.76025483739 3.44491659899
2902 1 31.3508950486 5.2828307482 3.47176460374
4205 1 35.0105490811 7.7243733846 2.14356973367
4228 1 35.0442520103 5.25418795387 2.14730436086
4036 1 37.2805300698 4.40068700614 2.57630692235
4211 1 36.5195462288 6.04711631001 0.356598581068
4227 1 37.2446553497 6.86478863114 2.57334486747
4230 1 38.7441333438 5.19680313702 0.788628746387
4209 1 38.7132700682 7.64928774108 0.756477752779
4061 1 40.9471444479 4.34757886575 1.24020964862
4226 1 39.4731491598 5.95181502181 2.9578641829
4397 1 40.9343485021 6.82535116115 1.19383147036
182 1 41.6303188794 7.53917859208 3.40878308373
31 1 41.7472852141 5.10645992043 3.4291589501
4229 1 0.578577625559 8.50815018302 1.75639241327
374 1 0.200909311312 10.8886168302 1.58518236799
181 1 2.34190363259 10.2356002357 1.75793941927
355 1 4.22728174447 9.07909767463 1.67829192178
361 1 5.73705978108 8.42712877849 3.43853329292
345 1 6.24797006118 10.2670306469 1.44022429679
353 1 5.49064519028 11.0002160494 3.56221358708
364 1 7.81500631263 9.45556953615 3.10322494132
169 1 8.61450563552 8.59596775107 0.932780179999
347 1 10.0201875404 10.2912054598 2.65135056969
348 1 8.48267177278 11.1027243633 0.902580444572
1700 1 10.7990517999 9.47462287713 0.457852643193
1514 1 12.2523336146 8.63376060265 2.21477185292
1699 1 12.2383683853 11.1084920914 2.21177479407
1706 2 14.4108003153 9.38506986669 1.69126210053
1844 1 13.0062680403 10.316941032 0.00413963800827
1521 1 16.5183649275 7.9939249257 1.28041970455
1689 1 16.5591709738 10.4911940375 1.40450158843
1688 1 18.0439601481 11.5156529163 3.4595973948
1848 2 18.5159074591 9.48739225706 1.98523142872
1876 1 18.7399326683 11.6663110946 1.11405907454
1516 1 16.3241005525 8.87230642741 3.54677396497
1842 1 20.913175881 8.13023761614 2.60412926341
2862 1 22.7107005678 8.64779940546 0.378500343824
1692 1 20.5508231284 10.8327379924 2.96977260658
2010 1 20.3364194492 9.70132567987 0.365250356947
3031 2 22.2610257167 10.1406566441 1.88153559955
2860 1 26.7827299192 9.37300096281 2.54733223949
2866 1 25.653250914 8.90430095376 0.20090083817
3035 2 25.9211478436 11.1950086711 0.897873904373
3052 1 24.5159904688 10.0581892149 2.27082513871
2864 1 30.4929884702 9.42639668189 1.23368372052
2881 1 29.0272767122 8.57758615675 2.98754415911
3054 1 28.2230408592 10.249769629 0.77226269217
3050 1 29.0106888838 11.0526164897 3.01606721237
4206 1 32.7632880067 8.57401558552 1.68680784928
4375 1 32.7379174096 11.0449802835 1.67663355225
3070 1 31.2588554661 10.2330533215 3.44618062741
4396 1 34.9906813866 10.1890151726 2.12833659734
4204 1 37.2381243497 9.33646651781 2.5989455525
4210 1 36.4974452859 8.5122526631 0.364578827167
4379 1 36.4822422754 10.9884607761 0.357088943138
4395 1 37.2346167746 11.7838468757 2.58050750665
4398 1 38.7398976105 10.1099906538 0.799559656561
4225 1 39.4207621408 8.38699919265 2.97035438429
4394 1 39.4259819625 10.8207245599 3.01811304742
4208 1 41.0021379297 9.26804481609 1.26135884197
542 1 40.8693751358 11.7912122484 1.19959778239
4224 2 41.5603790718 11.3880529228 3.59180362543
170 1 1.96155678007 11.970169025 0.0871283551886
4392 2 0.462535979864 13.140387031 1.57423225611
522 1 1.82677981862 14.5795728148 0.279539047848
4582 1 0.970059322094 14.4139790297 3.51301523432
350 1 1.2294972813 12.0376004471 3.6657281622
341 1 3.90137845856 11.9822794372 1.99830051437
530 2 4.01039834796 14.2230367796 1.80415792162
344 1 6.14352983765 12.7421363572 1.36846471211
513 1 6.16308833901 15.2075301845 1.35794601361
532 1 7.71100973034 14.426542361 3.08998480525
343 1 7.69747103794 11.945742874 3.11079666397
340 1 5.51196417917 13.6019332657 3.58278160007
1683 1 10.7420049803 11.946567512 0.460764627687
337 1 8.43099118587 13.580367721 0.896135513667
346 1 9.97480294613 12.7662856991 2.64717902935
515 1 9.95989606407 15.2404437022 2.6327524382
1868 1 10.7290125051 14.4129503904 0.443292818813
1685 1 14.4438060226 11.9345151803 1.79076589266
1682 1 12.2465939619 13.5888033564 2.20075907875
1874 1 14.5412395157 14.4202872036 1.78076084234
1857 1 16.8592146363 15.3663755326 1.36145164398
1833 1 16.5802978835 12.8943077563 1.4281158363
1855 1 18.1059533266 14.0366355005 3.05035989811
1684 1 15.9609013069 13.5449646986 3.65808239051
3194 1 19.7861244665 15.2011017359 1.470804967
1681 1 21.987803102 13.6338265152 2.82380350126
3030 2 19.9249557568 12.94836177 2.53060538282
2016 1 21.3053727845 12.0281280818 0.543094472977
3025 1 21.9369582465 14.810909733 0.123952118148
3175 2 23.2135960794 13.1917390615 0.938744423947
3051 1 26.7858476428 11.9405213922 2.78266208064
3028 1 26.5646209173 14.431254154 2.69700126228
3029 1 24.5909581531 12.5630036715 2.50155523288
3034 1 25.6380081831 13.6069523621 0.554164980616
3220 1 24.2043153014 15.0432728604 2.16812393701
3053 1 30.4711862936 11.9005530481 1.27113593169
3032 1 30.4280382535 14.3517716892 1.24250311398
3033 1 28.1230798164 12.694685903 0.833072267356
3222 1 28.11887956 15.1366149782 0.873979748381
3049 1 28.8967315356 13.5451239242 3.01011433779
3048 1 31.2073481854 12.7177403455 3.44379286101
4374 1 32.7103736799 13.5092560403 1.65597626928
3238 1 31.211367086 15.1796445848 3.42971464437
4373 1 34.9794089257 12.6540564684 2.09986155355
4564 1 35.0112188861 15.1187233924 2.09260841189
4372 1 37.2783447392 14.2410295016 2.56838891854
4378 1 36.4708798257 13.4640185697 0.33317459849
4377 1 38.6946806395 12.5697321817 0.815336401123
4566 1 38.6736867922 14.962746108 0.75155998996
339 1 40.9651406403 14.2483133552 1.21396859221
4393 1 39.5493387832 13.2679898603 3.03871998286
349 2 41.2816744727 14.6657860334 3.6119191743
4562 1 39.4709789896 15.8167331952 2.86849925541
523 1 0.0744993787914 17.0310434948 0.000637520385553
4376 2 1.47874094322 16.1351941625 1.87076827268
4703 1 1.38154431268 18.2723356142 2.44202131846
4694 2 1.21385831057 19.075752238 0.358261497519
698 1 3.5817713993 19.4107673501 1.43869980538
509 1 3.89522955819 16.8179647683 1.91096428727
508 1 5.37387944513 18.6580179795 3.30001625723
512 1 6.08831199088 17.6957214184 1.24832359166
700 1 7.66297665629 19.3783216421 2.9929331332
529 2 5.64547049402 16.2003188879 3.54779990498
511 1 7.70109830624 16.9217252721 3.04983891299
516 1 8.44136650272 16.0420705797 0.887585352611
505 1 8.402926193 18.528026549 0.82185895764
514 1 9.94446898929 17.7202453646 2.58942640622
1851 1 10.7268877893 16.8847573954 0.416233349247
2036 1 10.7231662809 19.3639745171 0.406177458831
1850 1 12.2176735897 18.5514207408 2.15607465426
1853 1 14.4974844042 16.9145329822 1.7227949468
1867 1 12.2211983603 16.0658202419 2.16460296786
2042 1 14.5126044188 19.3758643697 1.74553083492
1852 1 15.9524361254 18.5227148661 3.57786839301
1873 1 15.9007971786 16.0642378508 3.4685023922
1856 1 16.7723271535 17.827214426 1.38159129507
2044 1 18.272781545 16.4798025319 3.11294094322
2023 1 18.3174547376 19.146931648 3.53338247379
3026 2 18.6717884128 19.465471225 1.39234640721
1849 1 18.9532341377 17.1757421011 0.513835407885
3037 1 21.8386773577 16.2683990229 2.24918937256
3198 1 22.2994168283 18.6550688379 1.91729982079
3209 1 20.2038176711 17.8846560253 2.41551499285
2027 1 20.6780466886 19.3932047682 0.172066081111
3203 1 25.8881947552 15.9481446873 0.543939468005
3197 1 24.191786307 17.3892591526 2.38614973055
3204 1 23.6438085821 16.6845915483 0.0889578780032
3219 1 26.6182164412 16.9403712072 2.63660374787
3202 2 25.792637835 18.1703880869 0.351190831476
3196 2 27.170247108 19.385375953 2.84899954439
3218 1 28.918216643 16.0199580554 3.03542335712
3200 1 30.632421077 19.28738746 1.33971633883
3201 1 28.2006395256 17.699229399 0.956036567698
3217 1 29.1656992813 18.4757459134 3.13197362843
3221 1 30.4709035733 16.8256872053 1.30687114163
4543 1 32.7477693367 15.9736006604 1.66488433385
4542 1 32.8442608426 18.4430855969 1.71147534153
3216 1 31.3334681699 17.6078214277 3.47671544021
4541 1 35.0591055422 17.600158758 2.08976921671
4547 1 36.5053732051 15.9437099671 0.323559364919
4540 1 37.27164084 19.239724976 2.5225368821
4546 1 36.5322455554 18.4322019131 0.305131206703
4563 1 37.2642702829 16.7346325831 2.54808645877
4545 1 38.6684954859 17.4421952775 0.712205541532
4544 1 41.5463124986 18.9157414461 2.93613750056
4565 1 41.9616323107 16.5116379071 2.57897683883
4561 1 39.3556650969 18.2854221771 2.89895544942
651 2 40.8756684744 17.7158809267 1.04297445144
4750 1 0.418467636343 20.5362106075 2.03043617142
691 1 2.04443532771 22.0582262593 2.09619613552
860 1 0.308458075748 22.7572782707 0.609349165956
690 1 3.04955945934 20.4330336389 3.59499382392
677 1 4.18339063866 21.7987212796 1.52987188084
680 1 6.31302708166 22.7028266177 1.24175566848
681 1 6.09319061806 20.1752851261 1.19069250892
697 1 5.48445429714 21.0572824348 3.41164180842
676 1 5.64896246169 23.5266014218 3.49711180908
679 1 7.75273751549 21.8272093508 3.01595703451
682 1 10.0108863688 22.6631854793 2.59945341241
683 1 9.9481646282 20.1899884916 2.58559060262
684 1 8.4372758698 21.0033174111 0.82077754486
673 1 8.5419705469 23.4883823402 0.817485030796
2019 1 10.7309097533 21.8476427627 0.394005449991
2021 1 14.5133991518 21.8646289748 1.72275704834
2035 1 12.2304911201 21.0288011707 2.15769021003
2018 1 12.2752714782 23.5132708599 2.1704543889
2025 1 16.6689381732 20.3387327465 1.29942105479
2024 1 16.7541688692 22.7736389373 1.23503526945
2041 1 15.9183724491 21.0102924838 3.5525212908
1854 1 18.0507420683 21.5649667053 2.91040055698
2212 1 19.280157304 21.4731339402 0.490350063201
2020 1 16.0554032619 23.5085668108 3.48762791883
3377 1 20.6627095818 20.4267422197 2.35327849912
3373 2 20.0116145598 22.471392458 2.67205326929
3363 1 22.3095107668 22.358119576 1.92783585581
3530 2 21.163993758 23.6469930036 0.0948367280614
3367 2 24.0784148025 19.9393566999 2.12100258946
3365 1 24.6133952098 22.3106796723 2.58642334244
3371 1 26.1145863507 20.6534760263 0.939456101271
3387 1 26.9692799059 21.8524136136 2.92635266257
3362 1 24.0084444499 21.5051472746 0.370380953799
3508 1 25.9715969824 23.186398476 0.906186647892
3390 1 28.5075703039 20.2002971602 1.07842665322
3369 1 28.3521352424 22.5937774027 1.12101743081
3389 1 30.6080536248 21.7703211953 1.4133826795
3386 1 29.1982751963 20.9785344876 3.25534261794
3385 1 29.0652452148 23.4439320566 3.22257259722
4711 1 32.8534498034 20.9368065873 1.72929904935
4710 1 32.854001039 23.3819343454 1.77335055828
3384 1 31.3455790364 22.5774230578 3.55306815857
3406 2 31.44228161 20.0329202038 3.46206583663
4709 1 35.1429065901 22.5491294563 2.1107604726
4732 1 35.0750611148 20.0847796327 2.08530743597
4715 1 36.5774885924 20.9089143458 0.314305439246
4714 1 36.6306690835 23.3596412463 0.300569556352
4731 1 37.4372311196 21.7061838662 2.43573141315
4734 2 38.6549589877 19.9316640735 0.83902065856
4713 1 38.9297596844 22.5786503125 0.689589674748
4918 1 42.1100339045 22.9503258994 3.22324736559
4733 1 39.7109316042 20.9145329564 2.93089036987
4729 1 39.7435175764 23.4651048406 2.94967487684
675 2 41.088465707 21.9208556265 1.14729143555
686 1 1.35936268944 24.259765911 2.37667678579
878 1 0.631926887627 26.3068449045 1.37013935404
4896 1 1.58665885488 26.6218590316 3.67608174884
1004 2 2.65027351867 25.2455318393 0.412301191476
845 1 3.83695467368 26.8048065097 1.85740167769
866 1 4.0407525796 24.2677675755 1.88130239188
849 1 6.28261649832 25.1746258818 1.36099082752
865 1 5.61656150161 25.9491312515 3.61667874706
848 1 6.31915891133 27.6079608748 1.38045720161
847 1 7.82980498364 26.7314317706 3.03577435156
868 1 7.84321927982 24.2989271625 3.0469987691
851 1 10.0664323806 25.1380671438 2.61349767519
852 1 8.57956644235 25.9298187462 0.850668621014
2204 1 10.7961247893 24.3261170673 0.399181822009
2187 1 10.8179166302 26.7933717702 0.411281166389
850 1 10.0635003924 27.5784627988 2.59407968169
2189 1 14.5474403596 26.8513521759 1.74822091016
2203 1 12.3013312944 25.9787758768 2.182882456
2210 1 14.5578283364 24.3595484937 1.74242563315
2017 1 18.9696512526 23.7826272768 0.911207003467
2022 1 18.3011889536 24.3693730714 3.14744609226
2193 1 16.8386466176 25.2425179322 1.31958646523
2209 1 16.0082463726 26.0187186437 3.51467320694
2195 1 18.210012788 26.8484281935 3.01745887944
2352 1 19.1163452768 26.2722211876 0.87403004115
2026 2 20.3058514511 25.4980449461 2.66913108101
3540 2 23.100330094 26.0778599066 1.0459073502
3364 1 26.7466957253 24.3150329035 2.83087623014
3539 1 25.3522479106 25.9236850455 1.06945335351
3555 1 26.8900785033 26.8640784853 2.62209933489
3556 1 24.0213114627 24.6899278243 2.73355893885
3533 1 24.3167883051 27.6397552797 2.48051924157
3361 1 23.6883073295 23.8013498935 0.146600280846
3368 1 30.5626994959 24.2636054107 1.45546776855
3554 1 29.0763380906 25.8891942359 3.07877534273
3557 1 30.5947716056 26.6833589554 1.30234869605
3558 1 28.1116636164 25.0189201976 0.935153791541
3537 2 28.5179388638 27.540786164 0.970247848559
4879 1 32.8291726949 25.8324305368 1.70657654132
3552 1 31.3284896262 27.5094916419 3.51620462685
3574 1 31.3564394395 25.0503065572 3.55347374434
4877 1 35.0668618353 27.480657315 2.10223417636
4900 1 35.1245544126 25.0096820239 2.10141881481
4708 1 37.4282132472 24.1737705348 2.46542330014
4883 1 36.6335774204 25.8259590137 0.322615981629
4899 1 37.3390517204 26.6349053161 2.50321606658
4881 2 38.7408589643 27.5545758023 0.750672074554
4902 1 38.9717692765 25.0163804629 0.703438162998
4712 1 41.3741304125 24.4188090978 1.17716975779
4901 1 40.9873120028 26.7784959881 1.13749647741
4898 1 39.6333601497 25.8681213057 2.90346134601
674 1 41.9730842769 25.4124555895 3.27387442122
1027 2 1.64534553997 28.2141468769 2.04737888782
5207 1 0.294339684975 30.2583607151 1.80381235952
1172 1 1.97375763691 29.6929488662 0.170855131511
1045 2 2.0239830052 31.5986103666 1.85836816197
1034 2 4.70073350169 29.1003622421 2.05792850393
1017 1 6.46557772227 30.147811332 1.33345236914
1033 1 5.18291802373 30.8646506138 3.52303768141
1013 1 4.11446350591 31.4972530754 1.30833982376
1015 1 7.53500460909 31.6283399517 3.06461307161
1036 2 8.02454779996 29.1615991609 2.86043039744
841 1 8.57707876245 28.3834968102 0.808731223135
1019 1 10.0683131846 30.0612781509 2.64164891434
1020 1 8.62126000264 30.8977484711 0.892968077957
2372 1 10.7862644911 29.2559774166 0.397253174
2186 2 12.2604737769 28.4656520116 2.16857503458
2371 1 12.2295471235 30.9439920305 2.23754075273
2378 1 14.493396784 29.3313874082 1.72679340023
2516 1 12.9450995509 30.1010850679 0.018924538879
2192 1 16.7796057843 27.7373294479 1.28380314433
2188 1 15.8996525659 28.5398453625 3.47474746157
2377 1 16.020063408 31.0158602336 3.50196366698
2360 1 16.7670341258 30.2023088649 1.26290504599
2361 2 18.0473609864 29.2442929293 3.15378302778
2191 1 18.891262611 28.6273442991 0.621788674129
2194 1 18.860166212 31.068647612 0.263212055819
3534 2 20.7199729882 28.1545870613 1.68328567813
2363 2 20.2817760196 31.290191773 2.24584889559
3531 1 22.3580765002 29.619923009 1.48071085989
2682 1 22.6183225228 31.4180914916 2.91737112872
3532 1 26.7783265073 29.2981649278 2.79577166244
3538 1 26.2239289881 28.3164800715 0.68058026661
3707 1 25.9573056327 30.7189641032 0.383483081999
3724 1 24.6005392981 30.0311121427 2.24285208404
3709 1 23.6432529523 31.519033975 0.404541844281
3529 1 24.0423415318 28.3948477182 0.0543560466258
3536 1 30.5269982832 29.1464193429 1.28146992792
3553 1 29.0598494876 28.3729329564 3.14555181094
3722 1 29.0324431322 30.8166730144 3.07598091528
3726 1 28.2666055034 29.9810320075 0.898766356287
3725 1 30.5186698057 31.6101136974 1.2896812418
4878 1 32.7865206674 28.307256232 1.69830223051
5047 1 32.7651153019 30.785855797 1.6911546629
3742 1 31.2736042597 29.9738490877 3.4806178914
5068 1 35.0196201818 29.9626515259 2.09951673425
4876 1 37.2796038462 29.1271502135 2.49157473391
4882 1 36.5162132628 28.3165049965 0.312130048848
5051 1 36.4883924603 30.8026389363 0.315967312459
5070 1 38.7304622443 30.0044188016 0.70938719175
5067 1 37.2113413047 31.6231946527 2.50851944048
859 1 42.0349656588 27.8361934173 3.13357410876
4880 1 40.9481958014 29.1791292877 1.10347976098
4897 1 39.571082477 28.3464291607 2.89325596105
5066 1 39.4232562473 30.813817888 2.87595438718
1010 1 40.9928074105 31.6033464929 1.16549027102
5086 2 41.5849882463 30.1635401782 3.44713609815
5048 1 0.482626443266 33.2354074762 1.56491391171
1340 1 2.30770503503 34.9068939309 0.0264425913985
1202 2 4.04106857371 34.281020126 1.62930217547
1016 1 6.19802009439 32.5560720191 1.26832307534
1185 1 6.17824204687 34.9881072324 1.23483524722
1025 1 5.19756886525 33.2897134444 3.42399802898
1204 1 7.58144551066 34.1102319398 3.03149129673
2355 1 10.7882928526 31.7326030212 0.433061727258
1009 1 8.42634493885 33.3430900342 0.820436769197
1018 1 9.82367020516 32.5064434587 2.61047917654
1187 1 9.87911137714 34.9834850518 2.60312320917
2540 1 10.6632375069 34.1986403414 0.372647128606
2357 1 14.4295225111 31.7873730865 1.79702675674
2354 1 12.0490101465 33.3765503585 2.14122617866
2546 1 14.3175827972 34.2893235529 1.63190926687
2356 2 15.3268773761 33.4464612179 3.3852867135
2515 1 12.9829683824 32.6004838606 0.0104011175236
2358 1 18.316214075 31.7987738786 3.04979180164
2688 1 16.6965572976 32.6835197807 1.39514187138
2529 1 16.56634994 35.1914567442 1.20101584418
2527 2 18.1499816944 34.3979843014 2.55595453036
2673 1 18.9380168731 33.4085065206 0.661810774611
2342 1 21.2023936437 31.8485040482 0.385745103514
2531 2 22.5087174885 33.486668687 1.86455833643
2532 1 20.3213257844 35.0004153632 1.78580277552
3723 2 26.8448096589 31.6562830514 2.45512368153
3700 1 26.8114402285 34.1149717266 2.603186871
3701 1 24.6892525545 32.5130316408 2.34768644079
3706 1 26.044808308 33.2088811298 0.406436469723
3892 1 24.6135776257 34.9570494175 2.23530185596
3697 1 23.8572484866 33.9544152224 0.104089223204
3704 1 30.4848590264 34.0920725437 1.28907100421
3705 1 28.2984011671 32.4470916624 0.830565333394
3721 1 28.9912004911 33.251705884 3.06960035326
3894 1 28.2282386563 34.9170802637 0.834924428594
5046 1 32.7387734676 33.2697634088 1.69853749686
3910 1 31.2808015935 34.9193942436 3.47299239475
3720 1 31.2458853919 32.4420804728 3.49153304934
5045 1 34.9841387737 32.4570479608 2.10075016804
5236 1 35.0064457852 34.9422133221 2.08819776139
5044 1 37.2237878568 34.1117360031 2.5178151067
5050 1 36.4792922709 33.3114845634 0.323719875605
5049 1 38.7174197536 32.4522658571 0.748478148172
5238 1 38.6734672253 34.9255684069 0.737322797756
5065 1 39.457352714 33.2864291394 2.95717758179
5237 1 40.9058951252 34.046192996 1.17162604344
5254 1 41.7666513181 34.9663864283 3.27135173403
5064 1 41.687729381 32.5122123443 3.29604182644
1178 2 0.386964289629 35.6739921377 1.48524829259
1339 1 1.20459868851 38.0665964086 1.58304681948
1193 1 3.17492079497 37.9143472375 3.62908318271
1181 1 3.83181652478 36.6193090938 1.705778692
1190 1 1.24069453398 36.5031265433 3.58819303741
26 1 3.97456527771 38.9997288392 1.59102635597
1201 1 5.43503614914 35.8285554113 3.40748083495
1184 1 6.17447984133 37.4095934323 1.26033033129
1180 1 5.49650110998 38.250291901 3.42500865186
28 1 7.66900176745 39.1167598267 3.01032648589
1183 1 7.66752670517 36.6321032146 3.02505450169
1188 1 8.43524336012 35.8047326839 0.84026806766
1177 1 8.42244005784 38.2773466095 0.845415595461
1186 1 9.90401269972 37.4642335665 2.60294366808
2523 1 10.6861218161 36.654996287 0.40194037671
1364 1 10.672551691 39.117542737 0.435311873229
1370 1 14.3604294879 39.1780517069 1.80003893488
2539 1 12.1810338844 35.8302379945 2.1610127114
2522 1 12.1685329391 38.2944326004 2.22759589984
2525 1 14.4706769442 36.7285373796 1.78142276904
2521 1 18.6957280366 36.2893248973 0.799621998654
1372 1 18.3383906174 36.8566417661 3.00576838185
2528 1 16.7080454541 37.6844282074 1.32288795449
2716 1 19.2061101672 38.7313768885 1.06166396188
2545 1 16.1072268003 35.7979505721 3.55944759347
2524 1 15.8914091581 38.2755618089 3.47146416822
1351 2 18.1337175915 39.3459778949 2.93669453342
3702 1 22.485683226 35.8124958145 1.89799332167
2530 1 20.5939672196 37.746130536 2.85172526793
3865 2 22.6000279036 38.2438979507 1.59211305622
3013 1 21.006498765 36.9036634425 0.398985785749
3875 1 25.9301974295 35.740596709 0.397957325608
3869 1 24.628528584 37.4005823836 2.10170183115
3874 1 26.1407325124 38.2182286245 0.33689541158
3891 1 26.817629606 36.578764477 2.57488442569
3885 1 26.7801007388 39.0544487649 2.53512906402
3890 1 29.0410424522 35.734267244 3.03659770943
3872 1 30.5420072219 39.04551138 1.27752685742
3873 2 28.3526317386 37.3408979227 0.941783547351
3889 1 29.0610598714 38.2366023579 3.04755062215
3893 1 30.537816661 36.5660707025 1.28879677253
5215 1 32.7507748892 35.7381775092 1.72090362998
5214 1 32.7901356236 38.2137807643 1.70520921292
3888 1 31.314090369 37.3981065243 3.4699853011
5219 1 36.4665869343 35.811669986 0.323817418942
5213 1 35.0250633096 37.3917012066 2.10898081494
5212 1 37.3190907427 39.042098255 2.60125570307
5218 2 36.5629943591 38.3818977424 0.498387141462
5235 1 37.2573633221 36.5740774453 2.50924345462
5217 1 38.7399616204 37.3798730946 0.762439878512
5234 1 39.4950971958 35.7197730988 2.9186600282
4078 1 41.120517423 38.9406958509 1.27878435899
5233 1 39.5392242823 38.1770067184 2.96751676492
1179 1 40.9270033319 36.5155932011 1.15901236516
5232 1 41.8419850923 37.4345718965 3.2161940241
18 1 2.13771499904 0.501846145003 6.30973700716
37 1 2.23930852386 2.9033644178 5.76890947146
16 1 4.56872193264 1.80327980241 5.6290596649
23 1 6.87520595658 2.73794644767 5.22053296865
24 1 6.8550531555 0.26803378646 5.21948225773
15 1 6.14047204 3.53810126874 7.37815454559
42 1 6.11073861943 1.07370324653 7.36990228595
22 1 8.38627015679 1.97043391672 6.97994877802
27 1 9.13066155237 1.15407280056 4.81458572173
1375 1 10.6433618326 2.84626660398 6.57309782746
1376 1 10.597947603 0.362622655814 6.57851942236
6 1 9.16081590901 3.63609685059 4.8071571573
1358 1 11.3842477612 2.00774333524 4.39122011451
1361 1 13.6009667945 2.85696280892 3.99885944517
1362 1 13.5286886381 0.297472857212 4.05444481082
1381 2 12.7856680056 1.28466280591 6.17771271719
1357 1 12.8934317556 3.72853849988 6.15990580927
1360 1 15.1081191893 2.00249274301 5.73018604497
1371 1 19.3288821023 1.64839399816 3.70913143012
1348 1 15.8633188248 3.57084622581 3.71839549278
1359 1 17.354481859 1.60795066528 4.82345916318
1554 1 17.0750727138 3.42630375233 6.37971219969
1368 1 18.9500486993 2.02781375311 6.62129936379
1367 1 19.2069067551 3.72735648088 4.96154139144
1386 1 16.7687808649 1.15802584756 7.40037440227
2863 1 21.4239940045 2.70382631306 4.2754235613
2706 1 20.9793073832 0.780898823368 6.36109315469
2691 2 21.1021902853 3.09614964618 6.45606933887
3878 2 20.9135830711 0.181306243016 4.19886510585
1354 2 23.4430290468 1.98553078587 3.74699132738
2711 1 23.8280809808 0.390546690661 6.05940678848
2731 1 23.7434024897 2.81040786324 6.01668291281
2695 1 25.4382189066 1.12350134521 4.29668506922
2730 1 26.1189807292 2.02059087621 6.47771486808
2704 1 25.4260663154 3.60577806209 4.32876913404
2733 1 27.6369784177 0.308205813681 4.74734515705
2708 1 27.6478360673 2.79131833915 4.74733638902
2732 1 29.8775379079 1.97058760222 5.21439247354
2729 1 28.3780320843 1.16638929795 6.95549113737
2728 1 28.3982299158 3.62898968045 6.97046126856
4055 1 33.5922314793 1.96606364569 3.92277751221
4048 1 34.3455520679 2.79730448652 6.13614356055
4050 1 32.1089729694 1.14424617578 5.67676973424
4075 1 34.3433136399 0.307293818043 6.11352728878
4049 1 32.1102958635 3.63001804674 5.68800593306
4052 1 38.05032082 2.7296238754 4.79489314658
4053 1 35.8151614166 3.60681282905 4.37173766196
4054 1 35.8233369073 1.12214938452 4.35201627255
4074 1 36.5866312001 1.92888381337 6.56950544581
4077 1 38.05431147 0.265225432366 4.78337742882
4072 1 38.7780111719 3.53593780581 6.98576675361
32 1 42.6696319069 1.25130417156 5.52495727128
4073 1 38.8637368427 1.06360087362 6.96331913002
4076 1 40.3175345777 1.88368708333 5.20086483659
5247 1 41.2262052723 0.275959587878 7.31248556767
1208 1 42.6517911351 3.72487782104 5.78468646006
4095 1 41.0517718295 2.69439040396 7.3453823001
185 2 3.66091715453 7.58618257058 3.74040121179
206 1 1.26675284404 6.53987352366 3.75847148607
392 1 3.40995056673 5.02723510341 3.80940419462
13 1 1.9446113477 5.22600298471 5.71166305739
224 2 2.4595700691 6.51791674665 7.38514249822
211 1 4.6504625505 4.20372337334 5.59847882108
184 1 4.63399132178 6.65848590835 5.60798253548
192 1 6.94452429312 5.21216409357 5.24637709331
191 1 7.05293927572 7.68283062111 5.24768263553
210 1 6.24677920597 6.10781870291 7.38560052088
190 1 8.51468375725 6.95951072188 7.0211024
195 1 9.22889284771 6.12127821764 4.81788502483
213 1 8.43404187509 4.4556965495 6.9915177133
1526 1 11.5293079761 6.98681474196 4.3949297581
1544 1 10.7140953575 5.33482096095 6.57205030213
1550 1 11.42079908 4.49096129626 4.38745604819
1543 1 10.772083862 7.8180910029 6.58606434406
1530 1 13.6623393746 5.3376046508 3.9530705097
1549 1 13.0035722328 6.20536913189 6.13342280847
1555 1 15.0929948114 4.5578265134 5.77404436743
1528 1 15.3102809655 7.07033891456 5.66897444226
1529 1 13.8493799506 7.85238110265 3.93382062693
1536 2 17.2458236374 5.3212647078 4.93708892423
1539 1 16.8125552549 6.07016175647 7.26198783707