ITEM: TIMESTEP
42000
ITEM: NUMBER OF ATOMS
5376
ITEM: BOX BOUNDS pp pp pp
0.0 42.7297273569
0.0 39.5600404449
0.0 37.0050293879
ITEM: ATOMS id type x y z
5216 1 0.847097124028 1.31413886087 1.44079201066
4246 2 0.211765610251 3.63385740305 1.73963682137
1207 2 1.19578559821 0.765683872083 3.65846299432
5 1 3.78628346585 1.99163206154 1.58054496351
8 1 6.11104795367 2.86550427475 1.20118304717
9 2 5.93536862291 0.466557025016 1.25076389505
25 1 5.09818447618 1.13213078905 3.42333903868
4 1 5.42659722598 3.64149096977 3.42861756793
7 1 7.4928380155 1.95829338053 2.98511341611
10 1 9.80532798243 2.76535452249 2.61847483319
11 1 9.77539243666 0.304049066552 2.57505251163
12 1 8.31579422227 1.10481818105 0.813123962152
1347 1 10.5465172339 1.96710046681 0.407353081994
1 1 8.40655167431 3.5922184728 0.848673727053
1349 1 14.1839524624 1.95992720246 1.77310227571
1363 1 11.9931120824 1.13592911539 2.18201383374
1346 1 12.0707449472 3.61591499787 2.20815766386
1369 2 15.5232008237 1.05509982793 3.57544035376
1508 1 12.8778745136 0.353139803888 0.0203050241978
1352 2 16.1585811915 2.82272222596 1.12586448557
1353 1 16.713320941 0.479656292786 1.40818916807
1355 1 18.3012723645 2.74599577207 1.27883207765
1371 1 19.1404134162 1.15967648737 2.91731763079
1348 1 15.8076147148 3.51416556873 3.56634823289
2716 1 19.1916633873 0.114360093274 0.621595082774
1513 1 20.3839292236 3.45295798046 1.51937182144
2710 1 21.7347181246 1.08030032138 1.3966094261
2689 1 22.5835914892 3.90985462376 1.72300957727
2863 2 21.1973763108 3.90111623819 3.68662600455
1354 1 23.0123484424 2.1391664058 3.69506649578
2694 1 24.6365083782 2.96074492558 2.06127951012
2699 1 26.0165105161 1.28867252153 0.270579542622
2698 1 26.0054325653 3.79169914487 0.274617374198
3868 1 26.8029329601 2.09181718559 2.50189180221
2709 1 24.4690461637 0.495263613159 1.93982966116
2697 1 28.2750167578 2.93440617548 0.750371978624
2714 1 29.0345410814 1.22971333946 2.94680173083
2717 1 30.5324027633 2.06040539797 1.19900940287
2718 1 28.2850181602 0.483591333401 0.739626428709
2713 1 29.0439923395 3.72101062286 2.95352500492
4039 1 32.7843512804 1.20615611524 1.63393269846
4038 1 32.7982020298 3.68619287587 1.6310389224
2734 1 31.2695979153 0.387849487772 3.38626475393
2712 1 31.2919838584 2.87259193413 3.39513971722
4060 1 35.0316940141 0.371348664539 2.06262721952
4037 1 35.0494063437 2.83940829874 2.06378341446
4043 1 36.5497203708 1.21468420111 0.316640109031
4059 1 37.3119370151 2.00764180997 2.50407714704
4042 1 36.5443301965 3.6442520192 0.311860204344
4041 1 38.8289576241 2.79053642625 0.734665126165
4062 1 38.8167383971 0.313129936068 0.76060340422
4058 1 39.5789639312 1.14099772684 2.93046420132
4057 1 39.5253520929 3.58465167397 2.94360784893
4196 1 41.1086058735 1.93009914622 1.2190323518
4056 1 41.7963341436 0.239419100905 3.30148846951
17 1 41.9393933619 2.69103533514 3.46292594493
193 2 2.37742304216 5.78272383569 1.92402752019
187 1 0.312098768924 6.13725090208 1.49039602099
173 1 4.20482653908 6.94541255403 1.60669481521
194 1 4.06241486512 4.40909484744 1.60622252457
177 1 6.21611931954 5.34536563964 1.23516531232
172 1 5.59037241819 6.10638309064 3.48301666123
176 1 6.34315506405 7.8255988703 1.27132797443
196 1 7.67342211647 4.44571439943 3.02536611833
175 1 7.79423004971 6.93520510817 3.08772518691
179 1 9.94774874827 5.26861915384 2.65437453224
180 1 8.51743973582 6.09769569523 0.884148589083
1532 1 10.6614126261 4.46837429495 0.436764191645
1515 1 10.7891724775 6.96265387097 0.494462056949
178 1 10.0695480709 7.75331323087 2.73699458504
1517 1 14.4626464169 6.95506940437 1.86351220407
1531 1 12.2068164315 6.13769950698 2.23919924483
1538 1 14.3102101034 4.44486356244 1.83149441
1676 1 12.9447106333 5.30214136942 0.0456850185924
1675 1 13.0752179798 7.80050871699 0.0749750370208
1540 1 18.8075710545 3.99246155076 3.32307031139
1519 1 16.6588807751 4.93955807535 1.81530262597
1839 1 18.3282735897 6.62445296663 3.16465605919
1524 1 18.811573144 5.33473579309 1.04041041085
1521 2 16.7442612148 7.14112718893 1.52138798244
1520 1 19.0490299044 7.76240677955 1.13265079099
2868 1 22.6052670458 6.72958531813 1.83428363122
2838 1 21.1392110987 5.52828415024 0.520879604448
1523 1 20.5970936837 5.89403101133 2.87219282779
2692 1 26.8015421349 4.57985514492 2.49099576375
2867 1 26.0035428899 6.31410677057 0.261379259826
2883 1 26.8566697222 7.06243153572 2.4536542118
2884 1 24.580360357 5.43967231358 1.99069284663
2696 1 30.5417327612 4.54274539836 1.19961442568
2882 1 29.0640172902 6.18804889601 2.94040399021
2885 1 30.5319339871 7.01608080147 1.18998398811
2886 1 28.2839952076 5.41547442569 0.750064698726
2865 1 28.2614950547 7.89199441331 0.683000239933
4207 1 32.7892605944 6.16238930709 1.62534747849
2880 1 31.2904666907 7.81795622672 3.39591575232
2902 1 31.2985376482 5.35509383007 3.39129333523
4205 1 35.0275175841 7.79333450484 2.05558265057
4228 1 35.042191392 5.3160470971 2.05132557416
4036 1 37.2857944605 4.46591555089 2.4861137925
4211 1 36.5397350891 6.11703679316 0.265202256334
4227 1 37.2616156161 6.93754948173 2.46355875648
4230 1 38.7648862918 5.28438516918 0.726725581993
4209 1 38.6891781171 7.75196798727 0.629022699475
4061 1 40.9462649503 4.42008521277 1.16077599358
4226 1 39.495968486 6.0594453556 2.91421318723
4397 1 40.8857174932 6.91871378139 1.05438102677
182 2 41.6388110772 7.69384816023 3.01439142082
31 1 41.6937487718 5.25411465939 3.3393240654
4229 1 0.607592708062 8.5777940475 1.49375045637
374 1 0.261226833059 11.011596733 1.45896274411
181 2 2.13531797344 10.3021445044 2.28947219917
355 1 4.07296322295 9.36334205078 1.77971852528
361 1 5.66652446157 8.59078495466 3.55276097049
345 1 6.26547575079 10.2652683218 1.54780810649
353 1 5.6630944952 11.0363826321 3.68437773897
364 1 7.87580966602 9.40728658065 3.17373754269
169 1 8.62047389139 8.57707632932 0.999457658322
347 1 10.0953308021 10.2567156534 2.74653296266
348 1 8.53706783954 11.0770560226 0.988211372136
1700 1 10.8139605202 9.44788013669 0.546986614503
1514 1 12.3053954035 8.59163252899 2.31258894631
1699 1 12.3163499982 11.0865305699 2.27204111737
1706 2 14.4251488517 9.43856757139 1.73887205559
1844 1 13.0110249913 10.2464337355 0.081363149034
1689 1 16.5387738831 10.7997341013 1.33863058861
1848 2 18.5298394301 9.8978365556 1.73625961397
1516 1 16.4333964258 8.92477443975 3.24158400247
1688 1 17.9847052217 11.600817058 3.40890334111
1680 2 21.148072989 7.96155888183 0.427725725929
1842 1 20.9205862484 8.36982509374 2.72132001902
2862 1 22.9179245402 9.25465947993 0.61188529672
1692 1 20.7990648534 10.8570588818 2.77818855511
2010 1 20.4701327596 10.2006965282 0.373366478605
3031 1 22.768114378 11.4594887699 1.36964014321
2859 1 23.0807526118 9.41428257429 3.27169563972
2861 1 24.6493111389 7.91935373035 2.01916841137
2860 1 26.8617854563 9.51676813815 2.50907454923
2866 1 25.9388820645 8.79719855512 0.270883645799
3035 1 26.2657814248 11.3464398156 0.312061382522
3052 1 24.773528061 10.414345152 1.97827896931
2864 1 30.5689950331 9.47138416059 1.19143035383
2881 2 29.0558085811 8.65149263081 2.94059408269
3054 1 28.3724668904 10.3223897711 0.764485386192
3050 1 28.9976451513 11.1354392329 2.99569585528
4206 1 32.7874450942 8.62947016797 1.63851296453
4375 1 32.7514551403 11.1029284354 1.64203521248
3070 1 31.2490698975 10.28647808 3.40997416947
4396 1 34.980873439 10.2757158856 2.04880342872
4204 1 37.1833143015 9.41956564578 2.40765416496
4210 1 36.4969408507 8.59705395443 0.233766540539
4379 1 36.508781623 11.0975370184 0.297372484951
4398 1 38.7585866547 10.2517191756 0.678395106708
4225 1 39.3518145245 8.44699649088 2.80985842261
4394 1 39.3735051306 10.8927896997 2.89011607219
4208 1 41.0159873807 9.45441520015 1.23973782185
4224 2 41.542901585 11.3599739064 3.13646626687
170 1 2.29743864025 12.3709369973 0.928258076583
4392 2 0.252625742538 13.3973481991 1.18383067397
522 1 1.93272045215 14.6389602422 0.228019834097
4582 1 1.68938959429 13.8795532021 3.12210908514
530 1 3.87357968346 14.4592369083 2.06898741663
341 1 3.94184923794 12.0367642949 2.42830742427
344 1 6.19998653244 12.7035643745 1.52754298302
513 1 6.1916582754 15.1680807758 1.45461764806
532 1 7.72316577395 14.3585980874 3.19248543629
340 1 5.49126849373 13.5114036925 3.69099667978
343 1 7.82938302496 11.8966234519 3.19241373028
1683 1 10.8010856224 11.9346734237 0.539563658742
337 1 8.44016876327 13.5364700709 0.989757292057
346 1 10.0423255668 12.7317135986 2.71828136687
515 1 9.96808383685 15.192767323 2.75731337289
1868 2 10.6379610958 14.4443352767 0.566537148713
1685 1 14.5375759441 11.965068308 1.85181125535
1682 1 12.2792592367 13.5396228439 2.2498709637
1874 1 14.5165130635 14.3942168119 1.86212253229
2012 1 13.0082563386 15.1650777481 0.0918094826456
1843 2 13.162013173 12.6561770803 0.0567995548007
1876 1 18.6293025837 12.1415594746 1.03090150056
1857 1 16.7287560152 15.4183421309 1.43240866561
1833 2 16.7209228318 13.2223973271 1.61952152438
1855 1 18.1789173148 14.3416119311 3.11967850566
1681 1 22.013693321 13.6418069715 3.08668829616
3030 2 19.7858570833 12.8125272727 2.95098552332
2016 1 21.013665411 12.6206972557 0.673621338091
3175 2 23.0198738414 14.0175863065 1.12856342312
1859 2 20.3597865025 15.7097382938 3.01150165954
3051 1 26.7490693727 11.9893973001 2.58278652709
3028 1 26.6513162538 14.4180210977 2.73245955176
3029 1 24.4787729259 12.7385481918 2.46723902829
3034 1 25.5848611292 13.9094030442 0.683927915356
3220 1 24.3391657178 15.2853555746 2.52669028931
3053 1 30.5175015545 11.9364583129 1.25393602855
3032 1 30.4799391518 14.3978427383 1.25445907846
3033 1 28.2478024736 12.7865953377 0.837647876777
3222 1 28.1818577478 15.1809032246 0.898133088115
3049 1 28.9645198423 13.5854979668 3.03232548884
3048 1 31.2368368023 12.7629916264 3.43580856806
4374 1 32.7454951607 13.5758788758 1.65473977648
3238 1 31.2695872055 15.2296764358 3.44365303752
4395 1 37.2510827685 11.9098070382 2.50674343909
4373 1 35.0060934191 12.7484466931 2.07129668162
4564 1 35.0240455761 15.2076892099 2.0787869549
4372 1 37.3372291285 14.3616293891 2.50778859292
4378 1 36.4875210561 13.5836802747 0.304462794133
4377 1 38.7433666363 12.7818669273 0.790211956692
4566 2 38.5433037944 15.2334701579 0.626411773186
542 1 40.9061651412 12.0138288942 0.95889724088
339 1 40.8767742631 14.7711295801 1.11438055117
4393 1 39.6664703173 13.2491671447 3.07198498361
349 2 41.2375114712 14.8822623204 3.310229838
4376 2 1.68751998961 16.056225783 1.95888437754
4703 1 1.48212318258 18.2167360424 2.49760329675
4694 2 1.30533757285 19.222932241 0.510611745268
698 1 3.64067851761 19.3344056173 1.54910397495
523 1 0.0441592967911 16.9723260997 0.191688774456
667 1 2.51549766662 17.0964910656 0.0255687649895
509 1 3.9814458727 16.9016306807 1.93068129705
508 1 5.42006945337 18.5376021438 3.50375744102
512 1 6.17490140516 17.6565302713 1.38087316228
700 1 7.66405259385 19.2952336941 3.15837577032
529 2 5.53311789319 15.9869820605 3.59425319392
511 1 7.68481106168 16.8394461757 3.19743816752
516 1 8.4556064892 16.0032627757 1.00058646365
505 1 8.4489855476 18.4725169606 0.973932241016
514 1 9.94921766182 17.6549049267 2.72712776513
1851 1 10.7305893517 16.8542736908 0.534616460296
2036 1 10.7309665176 19.3068789204 0.530942477736
1850 1 12.2355449198 18.4855216975 2.27298625224
1853 1 14.4793329955 16.8547362518 1.82735122702
1867 1 12.225546764 16.0000340616 2.26199028081
2042 1 14.5456201659 19.334034264 1.86356706503
2011 1 12.9990472746 17.6471534134 0.0794957967078
3194 1 19.2344646194 16.1192043749 0.90196585929
1852 1 16.0874687931 18.5657471713 3.66816423933
1873 1 15.9112445989 16.1393663012 3.64128142816
1856 1 16.7164178428 17.7281832894 1.42257958778
2044 1 18.1964300485 16.7767588943 3.11265626154
1849 1 18.908674274 18.3813518474 0.737903268661
3037 1 22.2803659828 16.3789089299 1.89831291421
3198 1 22.6266653229 19.2192214472 2.04965613029
3209 1 20.5376922402 18.0409238098 2.52440434463
1875 1 21.3609766516 17.5695674417 0.13192955815
3203 1 26.0503035349 16.175838031 0.49927127238
3197 1 24.6056498514 17.6052836523 1.96045956779
3219 1 26.7674446119 16.865659122 2.72958955461
3202 2 26.207649609 18.5394180704 0.633922930715
3196 1 26.8806386082 19.3381699273 2.68884894577
3218 1 29.0055899962 16.0437671696 3.06429512333
3200 1 30.503003643 19.3321582041 1.24381179558
3201 1 28.2851575569 17.6469549223 0.868326569115
3217 1 29.0852621499 18.5063039875 3.06785043958
3221 1 30.5130140081 16.8633542247 1.29222375679
4543 1 32.7664488262 16.04749183 1.66643406246
4542 1 32.7613931205 18.5285024151 1.67250637978
3216 1 31.3040817038 17.6848699759 3.45884027393
4541 1 35.0059982901 17.6958879114 2.06902987164
4547 1 36.4473568042 16.0957250664 0.285991730726
4540 1 37.281232938 19.2969035724 2.59359030429
4546 1 36.4940090138 18.5926097563 0.315419706046
4563 1 37.2298781765 16.8632747473 2.48542921208
4545 1 38.646249889 17.7756199183 0.696529444285
4562 1 39.409833865 16.0317419129 2.79932373372
4544 1 41.9869813698 19.2640787904 2.05800752898
4565 1 42.1314889525 16.8265396497 2.71694535779
4561 1 39.6333400428 18.4521093031 2.98111559043
651 2 40.794683324 17.5747308586 1.06011612283
4750 1 0.99854333785 20.8022177785 2.25872598394
691 1 1.92670904468 22.8494671426 2.49230687628
860 1 0.167845157934 22.8127878518 0.818978883639
836 1 2.1745191413 21.4335953342 0.228063800711
690 1 3.20321257021 20.3945860645 3.69813360314
677 1 3.96295752564 21.742096754 1.8452863127
680 1 6.20507332113 22.576527177 1.42395697793
681 1 6.07393070037 20.0995790673 1.37678017259
697 1 5.52270114398 20.9762663845 3.61237759108
676 1 5.58775855641 23.4236295044 3.67093131251
679 1 7.7207261551 21.7774826397 3.17698245168
682 1 9.9463781404 22.6103453471 2.73009595128
683 1 9.93566746992 20.1299217304 2.71752019658
684 1 8.40587933383 20.9430443855 0.965296181943
673 1 8.44524245952 23.4307883067 0.986396459712
2019 1 10.7002496878 21.78051033 0.533457450454
2021 1 14.5146893634 21.7975917853 1.83611448457
2035 1 12.2207318899 20.9613404371 2.27585885289
2018 1 12.1868617786 23.4388980561 2.2755437219
2180 1 13.0224347162 20.1354066797 0.0908782596773
2179 1 12.973674669 22.6159190033 0.0883926644694
3026 2 19.2012337446 20.1205965314 1.97868733366
2025 1 16.857234583 20.1982904656 1.48502571682
2024 1 16.7674538032 22.6965163747 1.37688347328
2041 1 16.0076832416 21.0269398456 3.63673666929
1854 1 18.2831565832 21.9630673724 3.18068917352
2020 1 15.8797655976 23.5123830469 3.54185524376
2027 1 21.1243810562 19.9328458675 0.483228656726
2212 1 19.7973605386 21.9239045662 0.948911994043
3377 1 20.9532782907 20.718287083 3.21060819791
3373 1 20.5373839409 23.1702486763 2.99817788682
3363 1 22.471412551 22.1317300664 1.93911636146
3367 1 24.7465340377 20.1453379595 2.17428426946
3365 2 24.7500026305 22.6227577371 1.7854774752
3387 1 26.7725937043 21.7248762598 2.68384019547
3362 1 23.6314337567 21.0716559954 0.147253534684
3371 1 26.143340098 21.1503215117 0.290507053338
3390 1 28.2378204164 20.119194819 0.815720722838
3369 1 28.3157888265 22.5240661643 0.836932231646
3389 1 30.5395776033 21.8301798757 1.2375973385
3386 1 29.0397421785 20.9883172068 2.9809709379
3385 1 28.9680930615 23.4724856526 2.94455427478
4711 1 32.7662842469 20.9972269771 1.64869895081
4710 1 32.7364457602 23.4489068515 1.57319486276
3384 1 31.2638785591 22.6622513266 3.38974605716
3406 2 31.291987199 20.1729054732 3.41471376767
4732 1 35.000170029 20.1572640164 2.08213483795
4709 1 35.0309631638 22.620012579 2.01999612258
4715 1 36.4514959366 21.0318694458 0.335397262869
4714 1 36.5154661306 23.4881844582 0.281773032136
4731 1 37.3098841493 21.7955854049 2.50130197143
4734 2 38.5919799385 20.2345732139 1.07227743776
4713 1 38.7887565042 22.6971756446 0.814183863119
4918 1 42.0077536225 22.8607004201 3.08764651206
4733 1 39.6966628967 20.9750870357 3.0992538662
4729 1 39.6430734147 23.4710161122 3.02583225836
675 1 40.9158196135 21.4754222302 1.09543250723
835 1 2.46350490002 23.9007989446 0.365604684778
686 1 1.17334356025 24.9317609769 2.11704487633
878 1 0.587470977048 27.1265443916 1.49106896662
845 1 3.46878039825 26.4592062141 1.95467855012
866 1 4.02822832657 24.1550822894 2.08716629165
849 1 6.13812326797 25.114290444 1.45357136204
865 1 5.46370486221 25.882598382 3.67883691878
848 1 6.14916675438 27.5702789661 1.49326908374
847 1 7.66586373845 26.7563882218 3.20711177999
868 1 7.71753089021 24.2901060661 3.17689959431
851 1 9.93236249633 25.0992124875 2.7398969274
852 1 8.42129410975 25.9190016684 1.00773142926
2204 1 10.6966588627 24.2662767188 0.534135036653
2187 1 10.6878146526 26.7443469451 0.539023544564
850 1 9.90674962337 27.5705891606 2.73619498722
2189 1 14.3605403579 26.752629281 1.83720346558
2203 1 12.1625028404 25.915217571 2.28670587082
2210 1 14.4256413106 24.2829997241 1.81144768134
2348 1 12.9495258184 25.1073428701 0.07911140712
2347 1 12.9388806971 27.5919662612 0.0682153567859
2017 1 18.8435257755 23.9135693327 1.07604333133
2022 1 18.0724503529 24.4672349352 3.24545638869
2193 1 16.6867532686 25.1675355815 1.40686059786
2209 1 15.8432556673 25.9905036632 3.6063720949
2195 1 18.0022618915 26.8702569264 3.17627555335
2352 1 19.0200844674 26.1885783902 1.06470918999
2192 2 16.4904687511 27.5062396813 1.37506656851
3530 1 21.3292866906 24.1920492958 0.845578594697
2026 2 20.275832205 25.3636444754 2.89205382028
3556 1 22.7828711992 24.8271212542 3.22551572735
3540 2 23.3606614452 25.6623278236 0.991134978356
3364 1 26.6572631802 24.2459393603 2.37229669211
3539 1 25.7647220194 25.9701461207 0.337653303428
3555 1 26.7357907311 26.7647981626 2.46014382337
3533 1 24.3060846398 27.6338685307 2.12849938432
3368 1 30.4457680011 24.2789779031 1.13345265796
3554 1 28.988302895 25.9280865234 2.90947938333
3557 1 30.5417101915 26.7493652911 1.1654077909
3558 1 28.2149911372 25.2000867173 0.685681393959
3537 1 28.331973317 27.6187154936 0.782976023629
4879 1 32.7927176484 25.9178074813 1.5754602667
3552 1 31.2993925056 27.5648651417 3.37291244358
3574 1 31.2610963251 25.1024142989 3.33642770827
4877 1 35.0713955724 27.573431766 2.0024653699
4900 1 35.0668719706 25.0955394588 2.00766134583
4708 1 37.3456766926 24.2618834704 2.47294766405
4883 1 36.597784874 25.9405847467 0.249524382672
4899 1 37.3047391827 26.7254025647 2.46307600533
4881 2 38.8232533374 27.4882847346 0.775010502154
4902 1 38.8622272036 25.0568261435 0.70180853618
4712 1 41.0873209049 24.2998488623 1.28957306919
4901 1 41.0328836696 26.719941084 1.0906715144
4898 1 39.5743423366 25.9602655358 2.89537039371
674 1 41.9057806208 25.5344974189 3.21593167592
1027 2 1.69933667734 28.6598027208 2.70884432088
5207 1 0.628632298568 29.7231958615 1.08946788961
1172 1 3.2149936405 30.3499296892 0.26213861076
1003 1 2.59586350537 28.1531638212 0.418758478274
1034 1 4.11089025052 28.9097076811 2.26153183542
1017 1 6.10403594068 30.0660939712 1.28825518401
1033 1 5.36985091963 30.5923532483 3.61463785452
1036 2 7.68283773466 29.2568370667 3.0527763971
841 1 8.44246623506 28.3749420155 0.956656873627
1019 1 9.94234659105 30.0271764032 2.71156695721
1020 1 8.46792481781 30.8451371948 0.947973687359
2372 1 10.7247075498 29.2160490652 0.52632334806
2186 1 12.1859162498 28.3967123362 2.2843975114
2371 1 12.2020350432 30.8563214022 2.26456325114
2378 1 14.4561802201 29.2262568391 1.81731921196
2516 1 12.9821949068 30.0503345922 0.0899071327623
2188 1 15.8449963407 28.4712692486 3.60301889964
2377 1 15.9633009587 30.8877690524 3.58919989662
2360 1 16.7597311862 30.0631004728 1.45528777626
2361 2 18.1107996138 29.3021945658 3.47092734397
2191 1 18.6047595066 28.5275690468 1.19629622406
2194 1 18.9035463909 30.9221543944 0.43924199803
3534 2 20.7541710893 27.9915076807 1.2259816461
2363 2 20.2721838429 31.3375845002 2.10057142417
3531 1 22.2451719664 29.6572553714 1.36648235301
2682 1 22.4531661867 31.5739996083 2.71337451535
3532 1 26.8609549957 29.1705317144 2.46485506379
3538 1 26.1467726081 28.3964440793 0.399936505294
3707 1 26.0236055318 30.9850295426 0.386342124845
3724 1 24.5913093992 30.0426098664 2.05678574061
3723 1 26.7764654302 31.6336742415 2.63594866109
3536 1 30.5385028699 29.2320936513 1.18323815103
3553 1 29.0608487262 28.3895185101 2.97774983145
3722 1 29.0595772156 30.8950166926 2.96767334165
3726 1 28.3068817577 30.1107996374 0.781351305534
4878 1 32.7986918463 28.3952430014 1.59277550576
5047 1 32.7783522228 30.8773835318 1.60890760186
3742 1 31.2955575307 30.0403892929 3.38661511724
5068 1 35.0413815793 30.0465050656 2.01967482701
4876 1 37.2928650833 29.2046121176 2.42703232117
4882 1 36.5723413795 28.4001590321 0.232271886944
5051 1 36.4900297308 30.8694250692 0.221384662903
5070 1 38.7177537106 29.9857605902 0.611440585169
859 1 41.9075968152 27.9028409805 3.26603426312
4880 1 41.0045493127 29.1193701901 0.955155624933
4897 1 39.571945021 28.4370117229 2.84038622669
5066 1 39.4193844989 30.8703081498 2.75507982564
1010 1 40.9610989832 31.5828080622 1.00122351282
5086 2 41.6849751156 30.2032119166 2.95281130867
1045 2 1.97783821879 31.7532240814 1.64178719676
5048 1 0.410076889894 33.4664626851 1.45240713133
1015 1 7.61131882142 31.6482934236 3.08991052971
1202 2 3.98159131251 34.2490590423 1.17652037443
1013 1 4.22857294352 31.7294815264 1.82770466692
1016 1 6.25896327753 32.5997654532 1.23001064135
1185 1 6.15572407338 35.1150989558 1.03577582889
1204 1 7.54962014772 34.1610356669 2.9969273694
1025 2 5.60009030315 32.9579579244 3.57668567168
2355 1 10.7056293375 31.6708402854 0.506563453725
1009 1 8.47111782616 33.3259911724 0.864260228976
1018 1 9.87583386907 32.4874741434 2.66437223978
1187 1 9.85566469196 34.9416790041 2.63870524814
2540 1 10.724002328 34.1502622833 0.453464314566
2357 1 14.4786614627 31.6770022667 1.81056303004
2354 1 12.1657973666 33.3273830821 2.24873020887
2546 1 14.4701918947 34.1257360018 1.70187559638
2515 2 12.8660528834 32.5520480805 0.136760698201
2356 1 15.8949220266 33.322805858 3.47395806501
2358 1 18.2888128379 31.7310578171 3.21638178788
2688 1 16.7345510054 32.4859040334 1.31037754997
2529 1 16.8942310037 35.0934709262 1.20549436332
2527 2 18.0700789895 34.1205241232 2.80830268622
2673 1 19.0284778387 33.2942230324 0.815123875547
2342 1 21.1469231186 32.0581460054 0.261274371473
2531 2 22.5626188869 33.5963513745 1.77768815896
2532 1 19.902476906 35.3982674654 1.68892214757
2362 1 20.5162394383 33.3204431002 3.4339687263
3709 1 23.6330611518 31.7438760162 0.297497104014
3700 1 26.8462915994 34.2375489526 2.51734952078
3701 1 24.68554774 32.6728768231 2.22606776434
3706 1 26.0557571433 33.4201723094 0.348590513891
3892 1 24.5889140449 35.127075229 2.10210386569
3725 1 30.5197725889 31.7223462196 1.1978554108
3704 1 30.4842560132 34.213390016 1.22189368538
3705 1 28.2597568055 32.579869157 0.824394778285
3721 1 29.0281862022 33.3326654619 2.99485079079
3894 1 28.2662173875 35.0910387148 0.783349161742
5046 1 32.731734314 33.362876692 1.61311959561
3910 1 31.2683132992 34.9986796689 3.40874714318
3720 1 31.2734695067 32.5217191846 3.40197473166
5236 1 34.9554472493 35.0310718718 1.99119513454
5067 1 37.1944386483 31.6795062732 2.40685221929
5045 1 34.9749613357 32.5389263254 2.01171876008
5044 1 37.1565502487 34.1854545867 2.40950164684
5050 1 36.4437408993 33.3801947315 0.221447868634
5049 1 38.6560161843 32.4659040182 0.642494988959
5238 1 38.621995277 34.9767924295 0.628980809633
5065 1 39.3395295645 33.3502911393 2.82939712605
5237 1 40.8143033544 34.093764844 1.04229820156
5254 1 41.820196948 35.0296695597 3.04734509676
5064 1 41.4782464215 32.6484393038 3.04853916691
1178 1 0.697870156747 35.9840924912 1.32430481208
1339 1 1.10471184183 38.4493518157 1.72047924193
1181 1 3.58763497889 36.7178724238 1.6418082248
1190 1 1.65276101122 36.3249999648 3.45908535875
26 1 3.70675720107 39.1094063705 1.4403324571
1193 1 2.8508260584 38.6529007257 3.63347899679
1201 2 5.62116159394 36.069367122 3.08068773757
1184 1 6.07218168371 37.537519513 1.14758971128
1180 1 5.25951211592 38.3179866341 3.24737590057
28 1 7.53863408673 39.1202590767 2.96851293923
1183 1 7.71205346685 36.660896872 2.97699008987
1188 1 8.46537337235 35.7580394781 0.814097072046
1177 2 8.45400053302 38.1131964938 0.92540087992
1186 1 9.91866319073 37.417656633 2.63035560718
2523 1 10.6884748856 36.618260356 0.4211821644
1364 1 10.6232270126 39.0807900538 0.41140824368
1370 1 14.3702101303 39.0704535609 1.75894330245
2539 1 12.1305869326 35.7661209304 2.19508297705
2522 1 12.1276924458 38.246217853 2.18087143502
2525 1 14.3659992848 36.5716011648 1.75543490061
2521 1 18.8387176011 37.323035879 0.895696900361
1372 1 18.3111802134 36.4791816295 3.2132701613
2528 1 16.5208938304 37.5129460725 1.37372642477
2545 1 15.9277475996 35.7622439524 3.44190813588
2524 1 15.8129084361 38.2345813934 3.50320396077
1351 1 18.1089855331 38.6818055645 2.8030947798
3702 1 22.2469370908 35.9233693447 1.72253430572
2530 1 20.550206858 38.1212942118 2.6178464207
3865 2 22.5852018315 38.2539705059 1.57217799833
3875 1 25.9919082153 35.9308785001 0.354528164129
3869 1 24.6385805392 37.5201924604 2.04475035079
3874 1 25.9838665873 38.3973788064 0.277078700497
3891 1 26.9000562761 36.7539858244 2.46096013682
3885 1 26.7822376171 39.2092417634 2.4339302467
3890 2 29.060109083 35.7676198238 3.06586263348
3872 1 30.5068369688 39.1376776317 1.19189562845
3873 2 28.2452930997 37.6289853066 0.645813025725
3889 1 29.0154676191 38.317525525 2.93050668799
3893 1 30.4628046453 36.6788231613 1.21099875596
5215 1 32.6933599187 35.8343026524 1.63562638569
5214 1 32.7468655402 38.2979502064 1.62442801529
3888 1 31.2470238411 37.4746575014 3.38081141858
5219 1 36.4307151667 35.8897831822 0.228140904015
5213 1 34.9865585077 37.4724378378 2.02369958752
5212 1 37.2982710926 39.1041237988 2.52422854341
5218 2 36.5431893328 38.4505412808 0.420253950348
5235 1 37.228579471 36.647244456 2.41025914524
5217 1 38.7352529617 37.4283855177 0.674060176474
5234 1 39.4794907659 35.781414459 2.81070826703
4078 1 41.175461048 39.0198472673 1.15302079397
5233 1 39.5652548378 38.2309908574 2.84407836115
1179 1 40.9652515916 36.5525228908 1.08610391289
5232 1 41.9100813594 37.3758941511 3.19026772277
186 2 3.26211016806 3.04798287766 3.70837507828
18 1 2.35120781508 0.586611892428 6.12747214805
37 1 2.35308011879 3.35943736273 5.97873140991
16 1 4.4797989354 1.86400660921 5.60238001536
23 1 6.80560048184 2.70457224063 5.20110956969
24 1 6.7240897237 0.241139200983 5.15178058444
42 1 6.01098624275 0.998956178615 7.35952151289
15 1 6.10136116007 3.48068368019 7.38821784865
22 1 8.29763680715 1.91838742179 6.98613677985
27 1 9.00469376456 1.11046057019 4.76759053872
1375 1 10.5803450711 2.778262784 6.58887528682
1376 1 10.5216195363 0.306677836143 6.55510835204
6 1 9.08789578353 3.58587862564 4.82038909206
1358 1 11.2792238167 1.94704238305 4.38619395348
1361 1 13.518860733 2.78086462682 3.97305122645
1362 1 13.4502294356 0.264152346011 3.96613389248
1381 1 12.7593154831 1.14868826988 6.147576257
1357 1 12.8479242627 3.64529866225 6.16986490182
1360 1 15.0113746795 1.96219241215 5.65634396641
1359 1 17.3026710631 0.43504901885 5.00118630976
1554 1 17.0572345109 3.10242758513 6.17277005587
1368 1 18.6719064037 0.936161080968 6.95560486216
1367 2 18.7518783976 2.24904589112 4.95191710216
3878 2 21.1443059071 0.619962129914 3.72695646961
2706 2 20.8695236633 0.405598588626 6.70692010951
2691 2 21.2665166668 3.33356584492 6.64936719202
2711 1 23.7256114376 0.510677278865 6.07229041199
2731 1 23.7751852143 2.93939962063 6.04409105138
2695 1 25.2276877902 1.32675452437 4.24786004332
2730 1 26.0373422016 2.08433781137 6.4779509329
2704 1 25.3038621125 3.77485854866 4.29024067564
2733 1 27.5191619287 0.426771393981 4.68223262398
2708 1 27.5469454531 2.89907461848 4.71469765069
2732 1 29.7912252768 2.04649695263 5.15410730941
2729 1 28.2951957616 1.21930266755 6.91586242353
2728 1 28.3666095544 3.68400653906 6.92709010473
2751 1 30.5435620251 0.376151793321 7.35545714588
2727 1 30.5813047377 2.84653598423 7.3647060498
4055 1 33.5388728275 2.03409813745 3.83088873663
4048 1 34.3033251007 2.85421388591 6.03540416356
4050 1 32.0347177716 1.21073506837 5.59087738057
4075 1 34.2768671343 0.381855223583 6.02120811376
4049 1 32.0593361791 3.68637584585 5.5983775609
4052 1 38.0441427744 2.80698744217 4.70040054198
4053 1 35.7926385446 3.66304426931 4.26284578351
4054 1 35.7869840397 1.1944133811 4.25909941352
4074 1 36.5507082537 2.01535141745 6.47243883361
4077 1 38.0355985759 0.357398617524 4.68274666235
4072 1 38.7676300169 3.62769806075 6.87680738601
4073 1 38.8247700572 1.17824103921 6.87006304526
32 1 42.6252007441 1.18671254101 5.4859699164
1208 1 42.6109016107 3.65368268541 5.61640727812
4076 1 40.3348621046 1.97600962033 5.10600805708
5247 1 41.12145917 0.35342255191 7.21718164633
4095 1 41.0748293805 2.784464068 7.26205971368
14 1 1.18988696695 4.55951138777 3.82568089101
185 2 3.58378727224 7.89524703811 3.84168264865
206 1 1.14364847545 7.07026558532 3.85471093915
392 1 3.29596832028 5.53040273799 4.07001323478
13 1 2.06015862027 5.69596553598 6.18378654622
211 1 4.62853846854 4.31411480036 5.64289352592
184 1 4.7263813696 6.7637944539 5.68487701973
192 1 6.94837235757 5.1855341889 5.25813987287
191 1 7.044001598 7.65076208979 5.33785570212
190 1 8.52759544334 6.87992131173 7.09883033682
195 1 9.23972275055 6.07488578983 4.87369680158
213 1 8.41770780647 4.39140209404 7.02720900067
1526 1 11.5563829896 6.92325484497 4.47290009997
1544 1 10.7193514013 5.26025618648 6.64322553513
1550 1 11.3487497264 4.43228721123 4.43052347052
1543 1 10.8180136142 7.73154569181 6.67676898759
1530 1 13.5569083383 5.22582224129 3.94446695346
1549 1 12.9985813777 6.11587417912 6.21578317609
1555 1 15.0622325213 4.4836980482 5.72129426241
1528 2 15.3190806227 6.98426694892 6.17483554388
1529 1 13.8634394205 7.79095837246 4.10185902007
1537 1 15.7341881419 6.38028719606 3.70976437276
1536 2 17.2386492867 5.02724838469 4.49251408404
1535 1 17.4157543068 7.78670474299 5.17135767591
1539 2 18.1882878852 4.75831273148 7.29673890818
1350 1 20.3444615535 5.20631270625 7.28698571261