ITEM: TIMESTEP
4000
ITEM: NUMBER OF ATOMS
5376
ITEM: BOX BOUNDS pp pp pp
0.0 42.7297273569
0.0 39.5600404449
0.0 37.0050293879
ITEM: ATOMS id type x y z
17 1 1.47441014471 3.85098649501 2.65164406753
163 1 1.97942821179 2.02778585273 1.11036598676
194 2 3.85000673532 3.70644975074 1.71765010623
186 1 3.49068837974 2.60124191605 3.69637739322
5 1 4.2424765618 1.52721984142 1.59152791626
8 1 6.35588480522 2.76438433289 1.19531577371
9 2 6.60725029727 0.42095812957 1.15903306356
25 1 5.83261856038 1.05373186558 3.3674463522
4 1 5.65977894879 3.56098696001 3.35787853928
7 1 7.96414913134 1.99189460519 2.90045369046
10 1 10.1620824783 2.86407264398 2.47417602389
11 1 10.1841521738 0.372941118036 2.47123625645
12 1 8.69275550196 1.18363062788 0.695321007395
1347 1 10.875957296 2.01649614631 0.269459850591
1 1 8.56228796512 3.66028834357 0.748131873597
1349 1 14.6183467768 2.10031681579 1.55482025969
1363 1 12.3899399938 1.23095093336 2.02618874362
1346 1 12.3991165916 3.7064265569 2.01177287882
1352 1 16.8239963527 2.64142480497 1.01970981857
1353 1 16.5856642553 0.312136785719 1.06611856202
1369 1 16.1995460481 1.21108687891 3.40713783303
1540 1 18.476896087 1.84196130224 2.61073775768
1348 1 16.136743775 3.74581501541 3.11970570469
1345 1 18.9207965432 3.53646800089 0.167057896159
1356 1 18.9049157823 0.569468139848 0.589784984501
2710 1 22.8239790207 1.33855852173 1.67724431349
1355 1 20.5864504092 0.435572995993 2.99704901145
2863 1 20.5528720974 2.52722315347 1.39443598502
2716 1 21.1797622584 0.205413767419 0.402830596786
1354 2 21.8889903111 2.6332041357 3.15052031345
2694 1 24.3225014494 3.07944587133 2.12014296855
2699 1 25.6798595629 1.34336128325 0.500907804496
2698 1 25.9473416279 3.77918249237 0.517890239404
3868 1 26.6104800814 2.04031035948 2.75149643914
2709 2 24.6932547473 0.362820528911 2.33916889636
2697 1 28.1511605308 2.84654558958 0.996531789163
2714 1 28.955805606 1.20662822271 3.13834764687
2717 1 30.4610643188 2.0101654412 1.41019713983
2718 1 28.1405400413 0.39898064619 0.963011552272
2713 1 28.9610609687 3.68370045608 3.14561120093
4039 1 32.7497296789 1.16393711434 1.85047004067
4038 1 32.7540583036 3.63281235129 1.84147648553
2734 1 31.2283986985 0.371212926475 3.59235773926
4044 1 34.2544206341 1.97937609089 0.100689946012
2712 1 31.2489777545 2.82567350638 3.5939795729
4060 1 35.0524667091 0.327265197461 2.25231225553
4037 1 35.0460150893 2.78553428958 2.27703898004
4043 1 36.562711543 1.16687436847 0.501556269534
4059 1 37.3512948604 1.95201805619 2.70594456778
4042 1 36.5433777568 3.62682155571 0.52983350129
4041 1 38.7608961273 2.78521820778 0.931340753293
4062 1 38.8392895122 0.354520172153 0.890315435141
38 1 42.7216593512 1.17047834971 2.25808364684
19 1 42.7070898518 3.43012107831 0.788691126461
4056 1 41.8287311287 3.08697815527 3.39531519905
4061 2 40.9568537882 1.9706521644 1.02782204695
4058 1 39.73935597 1.13203158166 3.0622395729
4057 2 39.4463506082 3.61993553344 3.21406021034
187 1 0.613268092044 5.84048455548 1.33553242827
331 1 2.45099011256 7.03023926192 0.7236438347
193 1 3.4614060154 5.11936111189 3.5661431254
182 1 1.32012908466 6.3237822345 3.39768803227
332 1 2.44041948375 4.54473359248 0.094717603065
173 2 4.37900230953 6.89079610922 1.81988841423
177 1 6.20070788078 5.21068673627 1.26485799901
172 1 5.75134456015 6.14804854785 3.50614926865
176 1 6.30634237991 7.79862597435 1.26173833758
196 1 7.83340714562 4.47694964254 2.94680191261
175 1 7.87659453562 6.96822395131 2.96562351052
179 1 10.0342807158 5.33045060395 2.5155051419
180 1 8.45497427165 6.1259498849 0.772234901365
1532 1 10.7826616292 4.49678823301 0.301133513966
1515 1 10.7241766467 6.98181158765 0.295122788651
178 1 10.0378995461 7.82763668449 2.5151064507
1517 2 14.1628757785 7.07972164665 1.78263158723
1531 1 12.1865945366 6.16295839654 2.04120163369
1538 1 14.6584104604 4.60953133922 1.45384107182
1530 1 13.85664459 5.43863297176 3.67225124762
1519 2 18.4005200952 4.02417466986 2.40642176785
1537 1 16.0187095735 6.4326493336 3.07721127176
1521 1 17.0434054467 5.04030238351 0.726015292232
1839 1 18.5596450056 6.45243132312 2.90872846625
1520 2 17.4923996907 7.14919686361 1.08090613232
1524 1 19.9866373148 5.42950860535 1.31109436416
2879 1 20.9528995033 6.4156109493 3.4929317494
2689 1 22.1521677685 4.29498145291 1.79169582065
2868 1 22.2182083022 6.67198119763 1.63057714463
2715 1 23.7303397048 4.65385508748 0.118253744825
2692 1 26.6376293431 4.51423204643 2.72833170518
2867 1 25.8464107983 6.2490571867 0.427376584517
2883 1 26.7277178537 6.9761328628 2.6347748485
2884 1 24.3935009477 5.51762850583 2.29189734609
2696 1 30.4611223004 4.48842376668 1.39747851837
2882 1 29.0165164749 6.14638472947 3.1099980766
2885 1 30.5028890796 6.96518664965 1.37996426709
2886 1 28.1550748265 5.34204703035 0.946903450853
2865 1 28.2301666102 7.82339921848 0.927187877052
4207 1 32.7767811945 6.11128426167 1.826166097
4212 1 34.2764194879 6.92268418952 0.0782980240439
4033 1 34.2578899909 4.45184891903 0.0945008666434
2880 1 31.3322819465 7.76067093437 3.57939907508
2902 1 31.2864199926 5.29867825228 3.57007845788
4205 1 35.0498349053 7.7403014556 2.26327932361
4228 1 35.05069362 5.26731219171 2.26893499554
4036 1 37.3156291125 4.45802024626 2.69282802225
4211 1 36.5889923167 6.08253801863 0.527951836229
4227 1 37.3240580844 6.9123629383 2.71370813275
4209 1 38.8012298897 7.75317711923 0.950022511186
4230 1 38.9467226561 5.27511461757 0.97505130937
4040 2 41.4701465024 5.22457515601 0.39894278864
4226 1 39.5354644327 6.13621007573 3.26001455629
4397 1 41.066121293 7.05143517651 1.59019039181
4246 2 41.8095446581 5.6762488155 3.56065871093
4229 1 0.961684781331 8.49073314259 1.90861724185
500 1 2.03429410163 10.6542445984 1.33101763371
355 1 3.84468918785 9.251884058 1.63722126381
354 1 3.02133795468 9.96200087566 3.68933104494
345 1 6.03783219504 10.265420743 1.33154170666
361 1 5.42630627373 8.62781972704 3.57863399401
353 1 5.25971924978 11.0447222562 3.5619229062
364 1 7.6475552709 9.43347000028 3.03473337672
169 1 8.46828971709 8.61603730014 0.824558655821
347 1 9.90646396389 10.2924500026 2.59167786833
348 1 8.35528631081 11.0658634386 0.867806101012
1700 1 10.693202334 9.44613676155 0.373808856818
1514 1 12.2456710463 8.69002796921 2.06772781882
1699 1 12.1580979707 11.1449163446 2.14746060093
1706 1 14.4962683034 9.58730423407 1.70341655429
1689 1 16.6393620114 10.703597922 1.03064944612
1705 1 15.9805991075 11.2829320406 3.39587122816
1708 1 17.8674841145 9.27994417994 2.37244336778
1838 1 18.9091357587 10.5398419916 0.309337249852
1516 2 15.8725841809 8.96198546584 3.57607179842
1842 1 19.7332783267 8.09406572372 1.37971549636
2862 1 21.7375673714 8.79213526437 2.99248745899
1692 1 19.9859449391 10.5349636167 2.69762018631
3031 1 21.5786767499 9.50646494613 0.64007890499
3030 2 22.0813914564 11.2796616387 2.22652264182
2861 1 24.3922607752 7.96488218685 2.11653025935
2860 1 26.9963065944 9.39212829324 2.70790003146
2866 1 26.0179035281 8.74596262837 0.499839333066
3035 1 25.8749338272 11.2321777672 0.499105516258
3052 2 25.0603816637 10.2966607851 2.48983732281
2864 1 30.5263082595 9.44272922155 1.36433100416
2881 1 29.1223902087 8.59268897776 3.1339315795
3054 1 28.2723044227 10.2995987716 0.881408669506
3050 1 29.0773357763 11.0825136157 3.11152906306
4201 1 34.2493832759 9.40114332912 0.0624047739846
4206 1 32.7842480065 8.5863482298 1.81869447655
4375 1 32.7673168734 11.0659317761 1.819227388
3070 1 31.3135753438 10.246571474 3.57666175224
4396 1 35.0132461725 10.2241603182 2.25924557719
4204 1 37.2350585093 9.38641700366 2.70762581188
4210 1 36.5245275505 8.56540228262 0.499424832637
4379 1 36.4713337115 11.0406738665 0.488218368892
4398 1 38.7140518213 10.1961292452 0.93648734867
4225 1 39.4232793138 8.56368316005 3.18423696604
4394 2 39.2567026791 11.0670372068 3.04206020108
4208 1 40.9348029113 9.33858579636 1.47280868571
374 2 42.5450591869 10.5876580053 2.54835916396
542 1 40.9089214395 11.8308327684 1.3860592468
4224 1 41.7700556575 8.2088726808 3.58757499519
170 1 0.599493002215 12.4901489002 1.51416689727
341 1 3.69547892529 12.1334327828 2.04217584586
4582 1 1.61701326445 14.2647579508 2.50877091526
499 1 2.39840349958 12.9706726617 0.132021389078
668 1 2.40825812486 15.3520667848 0.0339847672656
530 1 3.91325891404 14.5077248716 1.74154470494
343 1 7.57311095573 11.8920168887 3.05867955573
340 2 5.53464259885 13.5650893052 3.30690179101
344 1 6.0618891352 12.6725336198 1.2554388245
513 1 6.17388534111 15.1786908127 1.19511656901
532 1 7.69196166658 14.3770184984 2.98208885332
1683 1 10.6205005841 11.9165830432 0.40505683961
337 1 8.37186757783 13.5278925416 0.801185701912
346 1 9.85306182971 12.7593131154 2.5959556885
515 1 9.90494335707 15.2468717682 2.52525898556
1868 1 10.6210776094 14.3948651176 0.358359589209
1685 1 14.3785150504 12.0597933537 1.75189013093
1682 1 12.1116500355 13.6214261257 2.10494003887
1874 1 14.3604114934 14.4969623061 1.75140349783
1688 1 18.2215699642 12.0494210287 2.73664445804
1684 1 15.9735071261 13.7792634137 3.52727132414
1876 2 18.8504011044 14.0653600666 1.60289751343
1857 1 16.5913447927 15.3119671016 1.37801064046
1833 1 16.5687897466 12.9847064615 1.29600531547
1855 1 18.1808897545 15.7239480557 3.28763385478
1681 1 20.7958119065 13.2179797675 3.19271120639
2016 1 20.3590157798 12.2502406592 0.886808967572
3037 2 22.0304555594 15.0488162719 2.4621008587
3051 1 26.8544183835 11.9254993153 2.76085954895
3028 1 26.8039712889 14.3980975186 2.76253127383
3029 1 24.4652212768 12.4743443751 2.70658742214
3034 1 26.1356201738 13.685627324 0.575319634439
3220 1 24.5318230187 15.1514641674 2.19628287253
3025 2 24.0313361735 13.1152547133 0.691984441612
3053 1 30.5257494895 11.9129139466 1.37204777692
3032 1 30.55954126 14.3895954672 1.43413661954
3033 1 28.2478235368 12.721747602 0.955930231286
3222 1 28.3360868342 15.1846490687 0.954132905962
3049 1 29.055732473 13.5611925076 3.15635726087
4380 1 34.2390111191 11.8798680533 0.0684591139853
4374 1 32.780385982 13.5449185655 1.84022562469
4369 1 34.26480775 14.3568385376 0.0780646250665
3048 1 31.295892535 12.730832312 3.58822064199
3238 1 31.306777752 15.2131795728 3.6272364394
4395 1 37.1873619538 11.8776863558 2.68461875453
4373 1 35.0011441221 12.708659656 2.25832591757
4564 1 35.0357145175 15.1757035629 2.26961506947
4372 1 37.2968830045 14.3397109869 2.6867271145
4378 1 36.5149607607 13.5266455836 0.501861284799
4377 1 38.7370722074 12.7019644632 0.937876048762
4566 1 38.8415807273 15.1636544746 0.938659462668
339 1 41.1015316334 14.2724857416 1.43273839556
4393 1 39.5721696082 13.4599445413 3.12853510359
4392 1 41.9957456535 12.8925859483 3.36014222847
349 1 41.9185386257 15.2101452391 3.57211282376
523 1 0.548115391526 16.2516384062 1.76891213734
4703 1 1.25511089608 18.5196339424 1.8978348523
521 1 3.21719961469 17.8273318055 3.59241188141
698 1 3.91890258859 19.2934784824 1.5846797454
509 2 4.1477945599 16.9168652194 1.41253768619
529 1 5.43484549448 16.0526473027 3.35974400683
508 1 5.50551733885 18.5025399888 3.29499068626
512 1 6.2733780809 17.6663250363 1.12022181736
511 1 7.69198052357 16.8370063635 2.93554555581
700 1 7.7578192684 19.3311183427 2.88813836034
516 1 8.41575827539 16.0186410124 0.754199652491
505 1 8.48117358234 18.5209371498 0.681561238526
514 1 9.89072180016 17.7440143502 2.44394464593
1851 1 10.6567948323 16.8749724106 0.303084480454
2036 1 10.7516857141 19.3706333024 0.265117228274
1850 1 12.166277087 18.6017663748 2.07101485124
1853 1 14.4208830489 16.9576959197 1.70823931397
1867 1 12.1535760689 16.1120389168 2.07583066562
2042 1 14.4022356567 19.4156264579 1.71023269816
1852 1 16.0218179423 18.7176859322 3.41418820045
1873 1 15.879677075 16.2308352591 3.54812576236
1856 1 16.7800685295 17.6164510081 1.36866254916
1849 1 18.8022934734 16.2661198102 0.904642157346
2044 1 18.6957961799 18.0288105318 2.87239480388
2023 1 18.9513680342 19.3209682495 0.818745885319
3198 1 22.5745729402 18.4519701134 1.78099192677
3026 2 20.5600147668 17.6019410994 0.953811162923
1858 1 20.5738403133 19.5885951497 2.43479241998
2027 1 21.3191650958 19.7629904906 0.0040661633671
3203 1 26.2009385615 16.115098764 0.517324586295
3196 1 26.7605179156 19.3370219892 2.71344135418
3197 1 24.6991491397 17.6949067381 2.281903293
3202 1 26.0805600108 18.567019829 0.486397952336
3219 1 26.8643400554 16.8555514674 2.74445039444
3204 2 24.1235735918 16.969629804 0.189712712212
3218 1 29.0758218256 16.0311536346 3.16491367093
3200 1 30.5223048327 19.3198434916 1.38690735477
3201 1 28.2955703265 17.6703723449 0.932678233617
3217 1 29.019258583 18.5083688652 3.14560437539
3221 1 30.5387815784 16.845204919 1.38148518594
4543 1 32.7837951422 16.0156481925 1.84184192173
4542 1 32.7758676157 18.4837162588 1.82938842808
4548 1 34.2912754644 16.826145833 0.0832752659982
3216 1 31.2653713442 17.6680668961 3.57271787349
4537 1 34.2855659067 19.2948377137 0.0711108683635
4541 1 35.0282090664 17.6420904138 2.28145529948
4547 1 36.5589793915 15.9923084349 0.516091993829
4540 1 37.3027258939 19.2809724905 2.70868572651
4546 1 36.5459848952 18.4590651609 0.530318750939
4563 1 37.2945632385 16.8052949488 2.70741037134
4545 1 38.8250881111 17.6509967552 0.966346468855
4562 1 39.5558938326 15.9387936026 3.15603068516
4544 1 41.2139426409 19.2908445702 1.46428594906
4565 1 41.0092384207 16.7955317267 1.45194007703
4561 1 39.5643846706 18.4639315739 3.1518419083
4560 1 41.8400832485 17.6980478995 3.64348960869
4750 1 1.74874751473 20.8876484892 1.89198722186
691 1 1.60396263811 23.3217954509 2.0342546423
860 1 0.106713768839 21.8282023101 0.346123888177
689 1 3.21192693633 22.6404424028 3.69414843109
677 1 3.98591565283 21.7409837105 1.54896923301
680 1 6.23010743773 22.6189530418 1.11093329447
681 1 6.24019939126 20.1264949435 1.12470525548
697 1 5.48987864361 20.9612112661 3.27284440858
676 1 5.44613670276 23.4715388069 3.32117794527
679 1 7.74205228551 21.8151408125 2.86865848682
682 1 9.9970210459 22.6853348103 2.43501254727
683 1 9.99304195348 20.2375686984 2.43958614873
684 1 8.49478771408 20.9935108444 0.676399823161
673 1 8.48491603156 23.4642506324 0.669107068163
2019 1 10.7735259267 21.8393949806 0.250661631573
2021 1 14.6226299886 21.8735200812 1.53911716958
2035 1 12.2856002653 21.0705456434 2.01900081047
2018 1 12.2626682194 23.5202338289 2.00881104563
2025 1 16.6665489555 20.0301991882 1.39430673517
2024 1 17.0322574467 22.4812063059 1.1520356779
2041 1 15.909261911 21.1345437136 3.4129068254
1854 1 18.3220411497 20.5840255599 2.9635789165
2020 1 16.306463139 23.5403865976 3.24475081855
2022 2 18.7803668801 22.8746805831 3.01554796844
2212 1 19.7355500089 21.7077286464 1.07513164677
3367 1 22.3360681854 20.9730180877 1.75833134189
3541 1 22.1259064668 23.4144581441 1.66865288913
2043 1 20.7460867449 21.7735371549 3.40429656677
3388 1 24.4722925927 20.1098314212 2.26116878623
3365 1 24.4244449826 22.5614258622 2.21276461654
3371 1 25.9764147469 20.953920279 0.504497606953
3387 1 26.7164129344 21.809268708 2.70001217397
3370 1 26.0718321342 23.3510081762 0.556429646126
3390 1 28.2581273827 20.1480415227 0.946287586661
3369 1 28.2898078854 22.6094400461 0.95163609186
3389 1 30.5325702837 21.7872517448 1.38445326205
3386 1 28.9975412193 20.9802744392 3.14496575746
3385 1 28.9896865521 23.4553650638 3.14299959509
4711 1 32.7827773096 20.950457651 1.81861536731
4716 1 34.298766826 21.7594762092 0.0412314769124
4710 1 32.7624282292 23.4229433557 1.81893407071
3384 1 31.2532514076 22.6125667989 3.58366269714
3406 1 31.2627136339 20.1446422113 3.58178558314
4709 1 35.0124826326 22.5798502025 2.24859069124
4732 1 35.0393493986 20.111716428 2.25975749406
4715 1 36.5724618307 20.927166021 0.493342827274
4714 1 36.4948733112 23.395548484 0.470012104457
4731 1 37.2578805458 21.7470717069 2.69074183931
4713 1 38.7213217267 22.5896889117 0.897353677056
4734 1 38.8606599925 20.1090072823 0.9612084858
4733 1 39.5058886667 20.9453259458 3.1560473858
4729 1 39.5413603944 23.419874527 3.0316517899
675 2 40.7937383442 21.7898611205 1.43398601241
4918 1 41.9079830878 22.8768058507 3.13265575787
878 1 0.48510052437 25.351569337 2.09577763716
1027 2 0.369337157192 27.5837263608 1.44708895833
858 1 3.03824419011 25.2817766113 3.36159447324
1004 1 2.52773801808 25.2720535559 0.170640329626
686 1 3.27045207096 27.6742949261 3.66223231775
866 1 4.00819825433 24.1340561635 1.53910718826
845 2 4.01994978759 26.7068840924 1.49339209211
849 1 6.20988260536 25.0942312041 1.09242584476
865 1 5.42585776756 25.9165878884 3.27483864165
848 1 6.20479193421 27.5621438532 1.05901135373
868 1 7.70593907236 24.2938387561 2.85663412754
847 1 7.69171333225 26.7597028056 2.83759767435
851 1 9.96381118595 25.1485477218 2.41623270071
852 1 8.46259478852 25.9345208674 0.646789139222
2204 1 10.750368041 24.3035907301 0.240332365435
2187 1 10.7432217198 26.772556379 0.226575592807
850 1 9.96798587573 27.6084135026 2.41331015807
2189 1 14.5326742206 26.8295768772 1.56845189466
2203 1 12.2341859916 25.9941874121 1.98267416149
2210 1 14.5379154676 24.2991637886 1.62710730636
2193 1 16.6835218658 25.1530441738 1.20719141402
2209 1 15.8424768401 26.0016866318 3.38462358015
2211 1 18.1188420492 26.5877576152 3.1788137008
2352 2 18.861790747 25.7624674949 1.10159354914
2192 1 16.8825069722 27.6616667004 1.27221485222
2017 1 20.3347912819 24.2943872395 0.104591321001
2195 1 20.3964127948 24.7291024051 2.82851107483
3366 1 22.4404809358 26.196765143 2.58129676382
3534 1 20.3514642413 27.2587921376 2.52637690476
3364 1 26.7282835817 24.2982298755 2.69851783657
3539 1 25.8559702716 25.8695592803 0.375677554882
3555 1 26.6893705946 26.7272304156 2.68975497918
3556 1 24.4590598209 25.0074563999 2.22057220926
3540 1 23.4316969134 26.7665877747 0.31751436018
3361 2 23.9526064211 24.0867681168 0.157973682968
3533 1 24.5073543071 27.5574133523 2.28072888488
3368 1 30.5012009769 24.2655992366 1.38976534078
3554 1 28.9725614578 25.9202509413 3.15428502309
3557 1 30.5116183579 26.7248799184 1.39599480299
3558 1 28.2109009454 25.0985242462 0.948072946179
3537 1 28.2629098339 27.5390571588 0.961305064124
4879 1 32.7671415378 25.890390465 1.82039344298
3552 1 31.2488663518 27.5540752818 3.59510629328
3574 1 31.2468000104 25.0841488624 3.58653107491
4884 1 34.2883365851 26.6937934446 0.0510843535726
4705 1 34.2598718343 24.224648769 0.0338599321435
4900 1 35.021650124 25.0499627853 2.2342258639
4877 1 35.0383595863 27.5206329649 2.24304869971
4708 1 37.2795395579 24.2146553951 2.64730593887
4883 1 36.5474093589 25.8638923606 0.466926452077
4899 1 37.2960745659 26.6866193685 2.65093907436
4902 1 38.8112737624 25.0422993404 0.881349975677
4881 1 38.8218404295 27.5196156008 0.882158181847
4712 1 41.1572415834 24.2335645504 1.19051507555
4901 1 40.9660799512 26.6329139543 1.43069616806
4898 1 39.5485114955 25.8328300386 3.09075661505
1046 1 1.31658561967 29.3072552235 2.35665870044
1026 2 3.3499468469 29.9945252439 3.41306144305
1013 1 3.81856328349 31.5564497844 1.47963100126
5207 1 0.723070635063 31.3654068291 1.28297240712
1034 1 3.92712014707 29.1011881047 1.4410658539
844 1 5.48462473152 28.4027796236 3.2643332207
1017 1 6.22902394715 29.9908391512 1.05812172147
1033 1 5.52859102349 30.8413332043 3.19905687273
1036 1 7.72335737872 29.2318846889 2.84627291189
841 1 8.45926504738 28.3937520487 0.644707318753
1019 1 9.99097921297 30.0705755756 2.42332099985
1020 1 8.48857405885 30.8516070804 0.646125320213
2372 1 10.7364903124 29.2335437107 0.226699194119
2186 1 12.2500036395 28.4521434297 1.98975111025
2371 1 12.2637128803 30.9204886546 1.99213261067
2378 1 14.5613301453 29.2842940487 1.58399725068
2188 1 15.9821144768 28.4753162379 3.4019694109
2361 1 18.3180540469 29.3553296648 3.2746200629
2377 1 15.973299315 30.9348123802 3.37400418613
2191 2 19.0047456894 29.0528663206 1.18826546782
2360 1 16.8451313642 30.2050600844 1.23446446075
2194 1 19.347780291 31.2225219353 1.0482012322
2363 1 21.8970762133 31.4862191838 1.82818472468
3531 1 22.4457803821 28.7011318303 1.78203780696
2379 1 20.7369272397 29.6393758062 3.04399773633
3532 1 26.7084279387 29.2388818252 2.72696768007
3538 1 26.0562238776 28.3064756847 0.527821017531
3707 1 26.0693869404 30.8437678988 0.58458348909
3724 1 24.416674476 30.0548336124 2.27582132929
3709 1 23.9231884176 31.6360713921 0.0751828521868
3536 1 30.5284829886 29.194348437 1.41650939718
3553 1 28.9757322522 28.3893269184 3.16469142323
3722 1 29.0029014085 30.8733100641 3.18154089416
3726 1 28.2896568876 30.0253178143 0.995524527142
4878 1 32.7818983784 28.3593583419 1.83423713109
5047 1 32.7824515057 30.8309572681 1.847985076
3742 1 31.2706726384 30.0271015343 3.60827554018
4873 1 34.2994827036 29.1645188281 0.0608451667066
5052 1 34.2827303161 31.6280180581 0.0745810576911
5068 1 35.0448783904 29.9900257108 2.25649174851
4876 1 37.3175617245 29.1661513247 2.64691115717
4882 1 36.5598917158 28.3339451575 0.471584202802
5051 1 36.5611761445 30.7888235601 0.48084679143
5067 1 37.2878543173 31.6285747655 2.64955007923
5070 1 38.8929000236 29.9714591853 0.83841123236
859 1 41.8053733429 27.7207477487 3.51204218876
4880 1 41.2109258236 29.200554968 1.36333262548
4897 1 39.568884255 28.34631963 3.04598354325
5066 1 39.5404289261 30.794567923 3.01880582882
5086 1 41.8287029028 30.3661175097 3.41060781206
5069 1 41.0844211002 31.6230863893 1.23064500842
1010 1 0.551830369926 34.9845604893 1.99085144426
5048 2 2.04191156147 33.2452649425 2.01918891402
1195 1 3.24433429137 34.9167412015 3.62578458614
1202 1 4.18590273093 33.9425704556 1.47363549214
1016 1 6.19052593919 32.4578608232 1.05623911033
1185 1 6.30338690038 34.9641409693 1.05245321478
1025 1 5.63303338181 33.2817840571 3.27198021768
1015 1 7.77425441152 31.6941268562 2.82129338441
1204 1 7.83001441613 34.164006451 2.83492545596
2355 1 10.7506869183 31.6957963669 0.228029149949
1009 1 8.5013530161 33.317873575 0.65260949062
1018 1 10.0303499825 32.5315046929 2.41251909692
1187 1 10.0902801962 35.0095269424 2.42572872785
2540 1 10.7785279612 34.1633202323 0.234664531703
2357 1 14.5640412148 31.772980028 1.57888958848
2354 1 12.2782647667 33.3849106213 2.00692985132
2546 1 14.5108641413 34.2204305211 1.61532296353
2358 2 18.0368248707 31.9226744492 2.90811444916
2527 1 18.3181023918 34.2577451073 3.24296468324
2688 1 17.0411845046 32.7750373404 1.15021228655
2356 1 16.0197559613 33.4155097604 3.39804057162
2529 1 16.6330896334 35.144423281 1.24464156281
2673 1 18.8721865878 35.3574159438 0.987409783393
2362 1 20.0000936968 33.3056012831 1.91454736425
2682 2 22.4243125327 33.9197586788 1.92312143985
2531 1 21.136799914 35.512636548 0.347087530115
2532 1 20.5807604999 35.5827876542 2.83858628356
3723 1 26.7376167583 31.7398318681 2.73803109088
3700 1 26.8009823631 34.1992029558 2.74853090118
3701 1 24.3985396814 32.517002926 2.33500255974
3706 1 25.9945178926 33.3527068161 0.572385399268
3892 1 24.60487153 35.0449513428 2.32320812275
3697 1 23.7612015609 34.2553920454 0.0715442672699
3725 1 30.5248435946 31.6747256122 1.43186794363
3704 1 30.5187387366 34.1551950194 1.44142636963
3705 1 28.2705033444 32.5227992405 1.00339477547
3721 1 29.0211390378 33.3416814046 3.20790101845
3894 1 28.2993478493 34.9801088417 1.01363398373
5046 1 32.7649908077 33.3076422977 1.85189706842
3910 1 31.2490461035 34.9838716786 3.632478618
3720 1 31.2791812316 32.5017695503 3.62544992402
5041 1 34.2469217538 34.1076878307 0.0745504334232
5236 1 34.969506307 34.948869453 2.23289977361
5045 1 35.0200301205 32.4605350524 2.25421017773
5044 1 37.2070047379 34.1103895561 2.62756532913
5050 1 36.5071032828 33.2674928371 0.476797816023
5049 1 38.7801679328 32.4238274782 0.864793469078
5238 1 38.7776620669 34.9290615056 0.953321592879
5065 1 39.4584865524 33.2656396709 2.97926590108
5237 1 41.0619139324 34.0425326446 1.34903901133
5064 1 41.8066830214 32.7135683736 3.40319590296
5254 1 41.7057585641 35.1977965144 3.66772390013
5216 1 2.14960988001 39.1942578365 2.27526373654
165 2 0.734414676825 39.3512070493 0.631234477566
1178 2 2.09523942999 36.6748209805 2.03660023467
1201 1 5.59937976894 35.7064623096 3.28740087669
26 1 4.44631007126 38.7516938953 1.63379726494
1181 1 4.17172879272 36.3493762394 1.37331162701
1184 1 6.35776116718 37.4104584035 1.10826274667
1180 2 5.76281664403 38.121288791 3.55658788122
28 1 7.9593514954 39.0624651197 2.92617803723
1183 1 7.8462943494 36.6214849326 2.89002404102
1188 1 8.55530956213 35.7983771343 0.676745938983
1177 1 8.60340739779 38.2633927824 0.703722921804
1186 1 10.1075828411 37.4693061378 2.46164308265
2523 1 10.7899663063 36.6268413228 0.258040208882
1364 1 10.8563256731 39.0968106751 0.244233497238
2539 1 12.3596160892 35.8704119044 1.99437572709
1370 2 14.4504341136 39.264964099 1.78706122523
2522 1 12.3285461207 38.31283081 2.02750778768
2525 1 14.6318728338 36.7438176976 1.54183552474
1351 2 18.1407818979 39.0360275788 2.66892378803
1372 1 18.3328871447 36.6764819667 3.03462096379
2524 1 16.0134744135 38.2789770367 3.1913575843
2528 1 17.3107687835 37.4638129992 0.974740179964
2545 1 16.0213945152 35.9262903413 3.35508499088
2521 1 20.1268359716 37.7811279118 1.6507017426
3702 1 22.5675175738 36.3115251864 1.96115546765
3870 1 22.5691778464 38.628377603 2.44964496649
3865 1 23.7027119618 39.2117057298 0.16400671255
3875 1 26.1030992954 35.8489896225 0.576810094144
3869 1 24.6572542184 37.4840202388 2.41295129451
3874 1 26.0086342423 38.3878737419 0.58880181288
3891 1 26.8153716778 36.6536051589 2.81127405112
3885 1 26.7463481196 39.1037727481 2.80732222042
4015 1 23.9630064137 36.7465364028 0.133639748961
3890 1 28.9994413605 35.8120312705 3.23992327369
3872 1 30.427036966 39.094860397 1.43677304251
3873 2 28.2665811294 37.4613177648 1.04435335703
3889 1 28.9516260655 38.2866548985 3.25603648601
3893 1 30.4858795275 36.626826112 1.4505441039
5215 1 32.7232733567 35.7960630792 1.8488347279
5214 1 32.712196455 38.2609438951 1.8442363544
3888 1 31.2122682632 37.4580739641 3.62952753266
5209 1 34.239576066 39.0700264148 0.102739814766
5220 1 34.2296302205 36.5965068883 0.0910477470085
5213 1 34.9971300079 37.4278837889 2.25808533429
5219 1 36.5093895348 35.7664058961 0.505626821332
5212 1 37.3615808013 39.0518895215 2.68040329118
5218 1 36.5307857652 38.2480623149 0.511196247219
5235 1 37.2725476792 36.5984662395 2.6881294503
5217 1 38.8196259961 37.4335667694 0.952810061904
20 1 42.6918777572 37.8413184893 2.45882955903
5234 1 39.4962814836 35.7818041699 3.16879599187
4196 1 41.0626994541 39.1241217831 1.27840277335
5233 1 39.7485729599 38.2115291814 3.14911364288
1179 1 41.0515789558 36.5020963727 1.38035309659
37 2 2.90714292083 1.0251309121 5.82080838275
13 1 2.59969817537 3.4530882158 5.80426481604
14 1 1.35040713966 1.8340284698 3.98792851665
18 1 3.66787151093 0.23395808503 3.81639148784
31 1 0.229466783089 3.81163136134 7.3994116091
16 1 5.00065100131 1.93650641591 5.48284335426
23 1 7.20703441609 2.78113396682 5.08273299461
24 1 7.26228063119 0.301255889768 5.11982520699
15 1 6.40631605413 3.62927366057 7.238428991
42 1 6.46532846448 1.16583628098 7.24691731063
22 1 8.7057474691 2.03080971443 6.86993230763
27 1 9.46397517808 1.20944849152 4.67289305376
1375 1 10.9569021142 2.91980554491 6.45756353253
1376 1 10.9634380193 0.449644214154 6.45765624644
6 1 9.42532247666 3.68794446779 4.68455925859
1358 1 11.7040045045 2.08985646419 4.24134406961
1361 1 13.9407041423 2.9680501719 3.77933255006
1362 1 13.8925707044 0.500263013299 3.87110351777
1360 1 15.4487939434 2.20439489505 5.55521471114
1381 1 13.2149095918 1.35647313405 6.04750571153
1357 1 13.2018632631 3.81981259805 6.03487601376
1367 1 17.7479228653 2.9086168054 4.74502603785
1368 2 17.7166896459 0.795009969702 5.58858875939
1359 2 17.0636534296 3.82863535591 6.81517066462
1371 1 19.9725702178 1.80089577721 4.91408852528
2706 1 21.5558794009 1.41926842683 6.81342467426
2726 2 21.2116156181 3.46515414275 5.74279794138
2695 2 23.9248228735 1.42959282578 5.26770971978
2731 1 23.3633034687 3.06214585326 6.65045106605
2730 1 25.9605157981 2.12369764835 6.60428703751
2704 1 25.1368169816 3.62727851291 4.5237785734
2711 1 24.1092208265 0.197408934913 7.17001005118
2733 1 27.5025287844 0.467113830782 4.89869770808
2708 1 27.4994707295 2.91454211069 4.89856896709
2732 1 29.7445262485 2.0262018757 5.35109090586
2729 1 28.2677912212 1.26375141391 7.13541486365
2728 1 28.3654765712 3.69073704131 7.09933473215
4055 1 33.5181611405 1.99080674091 4.02345868892
4048 1 34.295792986 2.78314563106 6.21372983965
4050 1 32.0145778924 1.18378509164 5.79478570507
4075 1 34.2704858679 0.324539973081 6.18758998307
4049 1 32.0563511984 3.63923980935 5.78685300234
4052 1 38.052933145 2.78551350265 4.88876189015
4053 1 35.8014948786 3.60524821363 4.45168059641
4054 1 35.7838978598 1.1397735016 4.42719531422
4074 1 36.5484909689 1.93801259725 6.60546755543
4077 1 38.047832764 0.319685716355 4.83781590589
4073 1 38.7960108001 1.09583306393 7.08088544299
4072 1 38.8534172589 3.61817603924 7.049085184
32 1 42.4590365171 2.32811620285 5.64280535743
4078 1 41.767951996 0.376946452646 4.21258371513
4076 1 40.2066445199 1.9725042149 5.28374846066
5247 1 41.0992640134 0.361051214829 7.35270932939
206 1 0.691541454338 4.48041967488 4.93250858293
392 2 2.78671866371 5.83168457558 5.52794326621
218 1 2.19967271505 7.78872363634 6.60037311035
185 1 3.27485346928 7.62745187302 3.80651325566
211 1 4.88065318247 4.40805037893 5.4650905025
184 1 4.80621981848 6.97498475693 5.56824304248
192 1 7.12945673082 5.22903764577 5.17091358669
191 2 7.13882586421 7.69198257648 5.1442753573
210 1 6.35222408239 6.10624025456 7.29686028621
190 1 8.58366507578 6.97127996497 6.94683670749
195 1 9.33261621924 6.14630575105 4.74828310231
213 1 8.66336247789 4.49831240354 6.8981123707
1526 1 11.4827564998 7.0489911402 4.27465228634
1544 1 10.9004393987 5.36808755143 6.48867698065
1543 1 10.8312759772 7.82001795833 6.52993566593
1550 1 11.6584194886 4.57117006452 4.24086611236
1528 1 15.3414929064 7.12892017232 5.40354542957
1549 1 13.0554108221 6.32346326404 5.87357779895