ITEM: TIMESTEP
12000
ITEM: NUMBER OF ATOMS
5376
ITEM: BOX BOUNDS pp pp pp
0.0 42.7297273569
0.0 39.5600404449
0.0 37.0050293879
ITEM: ATOMS id type x y z
163 1 2.10997483095 2.59709092717 0.792152020406
38 1 0.153369577101 1.04089165355 1.89560933042
17 2 0.351678724288 3.38998857725 2.01416273165
14 1 1.54536060101 2.02514746639 3.50416238914
5216 1 2.10149779545 0.0214205763358 1.85314356672
5 1 4.08735153801 1.74864240623 1.83128594496
8 1 6.35731795981 2.69572763499 1.19406708518
9 1 6.4832294657 0.269659963675 1.29733534297
25 1 5.66230207903 1.0210311494 3.49881743124
4 1 5.7953832082 3.38103422943 3.42492699033
7 1 7.85499000793 1.99491128062 3.04792545288
10 1 10.0671048182 2.86247219877 2.61433208286
11 1 10.0463433949 0.35329634258 2.6196949928
12 1 8.61529637915 1.18500947742 0.816125261219
1347 1 10.8361258993 2.03255374872 0.403792049553
1 1 8.57369092587 3.64625102132 0.828134086548
1349 1 14.5194997568 2.08571407643 1.82257203289
1363 1 12.2671263503 1.19969551041 2.20325021341
1346 1 12.3465121961 3.69490280394 2.19793086992
1352 1 16.7737342409 2.76733603974 1.51413333228
1353 1 16.5580644686 0.433793203732 1.35045855944
1540 1 17.9878959722 1.70016550896 3.4796514036
1356 1 18.8496672154 1.30620050988 1.0074196719
1519 1 18.7701667107 3.77206367654 2.47702646218
1369 1 15.8888574931 0.781535224523 3.59884138518
1345 1 18.9094973685 3.54900964427 0.0737157322652
2710 1 22.3574374268 1.00338882725 1.53280574017
2863 1 20.8755965611 2.95315820498 1.55279639191
1355 1 20.1943944211 0.761161718508 3.13615694787
1354 2 22.2757178615 1.79950103677 3.52858732675
2693 1 23.3947687457 2.62796096146 0.0579504809027
2694 1 24.3433419773 2.98319774996 2.35649900522
2699 1 25.9147258842 1.31451066324 0.417604095599
2698 1 25.9956207322 3.67753747449 0.457141666011
3868 1 26.7454685081 2.08667260233 2.59227925902
2709 1 24.5078478602 0.466767292528 2.18439754661
2697 1 28.2767486626 2.84223026423 0.84186679318
2714 1 29.0062411512 1.19659176549 3.04519922953
2717 1 30.5343406189 1.99118889372 1.2804393681
2718 1 28.1956764768 0.38588256997 0.851273242203
2713 1 29.0618287734 3.6574545931 3.04733305187
4039 1 32.798643778 1.15456482695 1.70593960647
4038 1 32.8332559091 3.62564568114 1.72398833198
2734 1 31.273762405 0.354118558817 3.46467676159
2712 1 31.3065547747 2.82266435709 3.47622429828
4060 1 35.0515299062 0.32237174553 2.13755257994
4037 1 35.0841344835 2.80408595323 2.1591017452
4043 1 36.634997604 1.12322353046 0.404059109006
4059 1 37.3111709317 1.98170810689 2.59753188261
4042 1 36.6578742434 3.56560464041 0.411592146588
4062 1 38.7481860635 0.142898692158 0.89353401
4041 1 39.0713421113 2.68857488505 0.855908487895
4058 1 39.4052212506 1.04552332395 3.23583575032
4057 2 39.3491146508 3.64376746391 2.95555144249
4056 1 41.4140042843 2.41872246595 3.28662251347
19 1 42.080469215 2.49368329698 0.190888249879
4196 2 40.7357809289 0.975733011875 1.3601713497
187 1 0.365528979841 6.77754852842 2.15598091577
193 1 2.16048175363 4.83395540855 2.20443785457
185 1 2.51457098728 7.12065826866 3.3295147127
331 1 2.0721935614 6.78967635123 0.364955727807
4040 1 0.262635031938 4.99193055495 0.333992432725
173 1 4.08787740023 6.44164773253 1.46414519438
194 1 4.25287542805 4.02448628609 1.52874305418
177 1 6.36512856168 5.18055348359 1.23395789273
172 1 4.73447965472 5.35958796155 3.54033764374
176 1 6.24861833517 7.65119299316 1.18935837798
361 2 4.66287953326 7.57966616862 3.28991505433
196 1 7.76948922535 4.53940911878 3.06866727956
175 2 7.92764653676 6.97011434259 2.68594425783
179 1 10.0463696638 5.34233435797 2.59608207539
180 1 8.60686846959 6.08872602959 0.712660774733
1532 1 10.8314605177 4.50856031481 0.409357390452
1515 1 10.8849581126 6.97138492955 0.394146348022
178 1 10.0363134072 7.81646264398 2.56916299231
1517 1 14.7488479472 7.05934038302 1.74413263095
1531 1 12.3651526418 6.17717140335 2.18957897818
1538 1 14.6869836244 4.55285674906 1.79978272307
1676 1 13.1078508784 5.37173539475 0.00921358835397
1521 1 17.0880145413 5.24617848703 1.39900008462
1839 1 18.7894684682 6.23218629415 3.41797796618
1520 2 17.2329440769 7.44774453406 2.44442452178
1537 1 15.9587358222 6.03668563185 3.65207782239
2689 2 22.4063188157 4.56374294625 1.50747853568
1524 1 20.0618441193 5.49748069378 1.51202665637
2868 1 22.3077917591 6.97565109491 1.64294373225
2879 1 20.9121762467 7.50373345211 3.57791023834
1523 1 21.0677120109 5.15218280966 3.64221411745
2692 1 26.8396692185 4.54047098712 2.58251900166
2867 1 26.1377175419 6.14519803042 0.457989366559
2883 1 26.8676847987 6.97754064671 2.64988332574
2884 1 24.5807503658 5.46166780079 2.2963286102
2715 1 24.025687991 4.81283566165 0.0479545361439
2861 1 24.5885846454 7.83097483197 2.2299899411
2696 1 30.5845596307 4.45767033489 1.29385336847
2882 1 29.0995722597 6.12563415225 3.06733099324
2885 1 30.5966705709 6.93553361869 1.31130855039
2886 1 28.3531540973 5.30456210694 0.848378223089
2865 1 28.3435275248 7.7811138848 0.880395336224
4207 1 32.8459827255 6.10152294939 1.74250257013
2880 1 31.3584525755 7.76091004359 3.51637498567
2902 1 31.339864051 5.29112420788 3.49648075091
4228 1 35.0908505718 5.27939085712 2.16719277299
4205 1 35.0883442937 7.7533956745 2.18727780593
4036 1 37.3037410775 4.47334587257 2.59825570721
4211 1 36.639972492 6.06165259107 0.407855800038
4227 1 37.3141656998 6.93569758595 2.5857662104
4209 1 38.7682037494 7.63611849038 0.636398257207
4230 1 38.9029523977 5.16960327905 0.808712851013
4061 1 41.102665494 4.54015666866 1.66056918938
4226 1 39.4541994534 6.0751866172 3.0945250933
4397 1 40.9667632888 6.80616494081 1.25373810212
4246 2 41.5794130026 6.03466642596 3.6433721045
4229 1 1.29444994074 8.84403337551 1.6208996748
500 1 2.15665155231 10.8994782614 3.14538376725
355 2 3.3498765291 9.95268395877 1.03708713917
345 1 6.09674296418 10.2347862494 1.15908431269
353 2 5.74051474934 10.4032311353 3.36190964159
364 1 7.75603759413 9.45420402789 2.86522088153
169 1 8.49327592779 8.58963705031 0.776316320556
347 1 9.93704653785 10.2789674527 2.58244675942
348 1 8.42713684986 11.064801985 0.799847184228
1700 1 10.7400463467 9.43547637757 0.397919744029
1514 1 12.2735013954 8.63047299351 2.16452013576
1699 1 12.1712843269 11.104607233 2.16142877302
1706 1 14.4451094871 9.53724798028 1.69352156304
1689 2 16.5936117626 10.5936885578 1.22318666903
1705 1 16.0563052088 11.2293779863 3.52111730538
1708 1 17.9978951899 9.71741981451 3.00360613494
1516 1 15.7713498565 8.74542186949 3.6011140912
1876 2 19.7845767016 11.7346739611 0.171849560303
1842 1 19.752428622 8.26589230149 1.67827810024
2862 1 22.5106325141 9.32223979321 2.39686171884
1692 1 20.4125082482 10.3912299841 2.87895860343
2010 1 21.5126124531 10.3651588939 0.474135321055
2860 1 26.9322379207 9.42219497342 2.67448430529
2866 1 26.1045672477 8.63215048281 0.472636893986
3035 1 26.0126507036 11.0820585793 0.443435010722
3052 2 24.8289878464 10.1301991256 2.24424463723
2864 1 30.5819465133 9.41068407214 1.31664259399
2881 1 29.1231098207 8.59336366792 3.09101474927
3054 1 28.3338244123 10.2569354203 0.867878661024
3050 1 29.0603048029 11.0736674346 3.08741047452
4206 1 32.8349787798 8.57483392931 1.75298180288
4375 1 32.7942816123 11.0474431943 1.75582857768
3070 1 31.3215939161 10.2402296875 3.51911151628
4396 1 35.0688514967 10.2189229967 2.19464873798
4204 1 37.3244222271 9.40639756264 2.64577359061
4210 1 36.5434502192 8.5525457317 0.397836281585
4379 1 36.5385131926 11.0075630023 0.413908528128
4398 1 38.8604830488 10.1558026072 0.914790325111
4225 2 39.4692747594 8.30280491846 2.58446077992
4394 2 39.1150741322 11.2711232524 3.09765835803
4208 1 41.2398762927 9.08436075182 1.20012185361
374 2 42.6312309638 10.4677495746 2.3222891763
4224 1 41.7181310314 8.43129273798 3.52902813366
542 1 40.996038214 11.8603294727 1.41278572888
170 2 0.456469260664 13.6430367675 1.27745747109
4582 1 0.798618981682 14.1956324935 3.53550499162
499 2 2.98934580008 12.7869219118 0.041707667171
522 2 2.62439947094 15.6097801454 2.83683969214
668 1 2.39144757446 15.2234796147 0.243213314218
341 1 4.16856509159 11.9073988923 1.98469648388
343 1 7.62764908436 11.8716499239 3.03506101972
530 1 4.1039432989 14.2974748396 1.637822068
340 2 5.58381461876 13.6177481336 3.36522223242
344 1 6.31974740383 12.7416702232 1.16926146653
513 1 6.21507245323 15.217328971 1.21553701329
532 1 7.70774806413 14.3498420788 3.00550950342
1683 1 10.6860421065 11.9099502177 0.37858087204
337 1 8.49060572246 13.5478836745 0.797925528409
346 1 9.89010266898 12.7145353342 2.58197215775
515 1 9.90084424906 15.1922082131 2.5514368611
1868 1 10.7052946965 14.3910819253 0.363901909411
1685 1 14.4096768811 11.9670966893 1.75387739826
1682 1 12.1465431378 13.5516298575 2.11979784943
1874 1 14.3811324126 14.4266344089 1.7000083773
1688 1 18.520299552 11.9398495274 1.98916448247
1684 1 15.6924767055 13.6490328548 3.55530022401
1857 1 16.5853177751 15.36038104 1.29686874689
1833 1 16.5297273894 12.9853735991 1.35647816056
1855 1 18.0815018005 14.0832168339 3.50856767108
1849 2 18.6059295966 14.4338506119 1.46118918822
3031 2 22.2569624789 11.9950923698 2.19084707419
3037 2 22.1841875764 15.1564680621 1.49153704644
1681 1 20.4742343406 15.2683666203 3.10861580234
3030 1 20.7058292055 12.7803136739 3.62712572626
3051 1 26.8148869846 11.8864764093 2.65221285113
3028 1 26.7531114583 14.3630596057 2.64664088717
3029 1 24.5543500203 12.6134788882 2.23853527853
3034 1 26.0128032841 13.5294335818 0.468706861798
3220 1 24.5349263096 15.1756468248 2.17333495057
3053 1 30.5371474322 11.8847776363 1.31732486546
3032 1 30.4945092343 14.3672149628 1.31626301375
3033 1 28.2792466484 12.7142380054 0.886069652119
3222 1 28.2612084846 15.1800183891 0.898368532199
3049 1 29.0146539988 13.5629491935 3.07961743128
4374 1 32.7155056628 13.5350708917 1.75305689675
3048 1 31.2548383057 12.7235395351 3.51907610073
3238 1 31.2378963895 15.2108828982 3.5113158688
4564 1 34.9132030262 15.1850976544 2.20513126461
4369 1 34.2023697292 14.3405469462 0.00271234776343
4373 1 34.9205502485 12.7043393492 2.19754602599
4395 1 37.0711842896 11.889534773 2.64459122963
4372 1 37.1099819087 14.3769767412 2.68761085174
4378 1 36.4512634016 13.4930473715 0.47569529919
4377 1 38.6920115337 12.6456151505 0.966246626212
4566 1 38.6337321991 15.1105956462 0.994060395251
339 1 40.9299636021 14.2628762745 1.49086354336
4393 1 39.3330246156 13.606246558 3.18414585571
523 1 0.405661086811 15.9910935851 1.96092770217
4703 1 1.66565230312 18.2177609846 1.89237627808
509 1 4.1048784811 16.816442824 1.61091763119
529 1 5.2835502515 15.949431346 3.49614801003
698 1 3.9824251626 19.2696419108 1.65021853557
508 1 5.46583972386 18.4430801418 3.41822700459
512 1 6.30027341611 17.6571499859 1.24861244534
511 1 7.63946607065 16.8032386269 3.03453058599
700 1 7.67801375597 19.2995333581 2.99418404377
516 1 8.45928009048 16.0271239989 0.798899485695
505 1 8.479227515 18.5083843131 0.790311756742
514 1 9.88668036225 17.6549379746 2.56723458077
1851 1 10.7064496248 16.8760003954 0.359889347904
2036 1 10.6939224736 19.3580766721 0.348849198556
1850 1 12.1138729099 18.5047810263 2.11975671249
1853 1 14.3650249079 16.8815348991 1.68733435831
1867 1 12.1429007708 16.0352100399 2.12862235336
2042 1 14.3213558922 19.3417023979 1.66322269291
1852 1 15.7949875887 18.5391526031 3.44678164054
1873 1 15.8162886184 16.0734852832 3.4996752037
1856 1 16.5427131732 17.7070265233 1.30454567939
2044 1 18.1357040959 16.6255162086 3.09100409388
2023 1 18.0459992769 19.0273350474 2.85717417516
3198 2 22.6057501224 18.5796945844 1.87719619273
3026 2 19.7832991493 17.2650518707 1.69181399551
3199 1 23.0079976255 16.6521727561 3.51522804899
3209 1 20.8338361184 17.9080863872 3.54727166553
3204 1 23.4769906965 16.7757760419 0.511512376267
3203 1 26.0074936623 16.0218326478 0.488217217688
3196 1 26.6953829327 19.387815336 2.65041103985
3197 1 24.729845286 17.8490924021 2.22895075729
3202 2 26.3037956703 18.3627211023 0.473178610334
3219 1 26.81592286 16.8510710619 2.65381317252
3193 1 24.2739010431 19.2837668212 0.00496590583882
3218 1 29.0220503473 16.0582771915 3.07463538914
3200 1 30.4506191193 19.3222922309 1.25054600406
3201 1 28.3608981337 17.6598031375 0.890273089407
3217 1 29.0004886291 18.5667536363 3.09985143197
3221 1 30.5174492166 16.8461409479 1.30481696068
4543 1 32.7134374318 16.0215604458 1.74632205517
4542 1 32.6879857266 18.5075364714 1.72090062283
3216 1 31.2139541909 17.6806319852 3.50618906853
4541 1 34.9075244788 17.6722084132 2.1832810851
4547 1 36.404853255 15.9908539431 0.468462980983
4540 1 37.1539534781 19.3103484848 2.65931582703
4546 1 36.4043535789 18.499065236 0.419006402965
4563 1 37.1128262042 16.8470467876 2.6720576955
4545 1 38.5986818776 17.6466487649 0.902162932532
4694 2 42.3725357894 17.8042540843 0.883362876113
4562 1 39.2918877822 16.0372723042 3.2051518191
4544 1 40.7029326578 19.2175340157 1.42962587274
4565 1 40.657992455 16.6276179644 1.47878859649
4561 1 39.3456530593 18.4417117239 3.18683046361
4560 1 41.7730761363 17.7179450015 3.53604810198
4750 1 1.94928871739 20.6818308974 1.95997991317
691 1 1.88686661733 23.3735125992 1.98814340717
860 2 0.540070960304 21.7468349928 0.652849444139
677 1 4.09106317631 21.7717393107 1.62042186648
680 1 6.2586245813 22.6270230733 1.20411017158
681 1 6.21824614239 20.1302705899 1.21411573561
697 1 5.45917261049 20.9678422791 3.4384603765
676 1 5.43716930848 23.4553629418 3.40411991814
679 1 7.69071628606 21.7822881528 2.98555670987
682 1 9.91680225121 22.6387646855 2.56067533817
683 1 9.90370528777 20.1478379266 2.55137979755
684 1 8.45797071657 20.987302543 0.775769340242
673 1 8.4707276198 23.4747166061 0.781506172215
2019 1 10.6975837243 21.8487833476 0.346131824477
2021 1 14.3666975504 21.8352548794 1.71057778911
2035 1 12.1284975801 21.0005691076 2.11108269514
2018 1 12.1410706547 23.483326524 2.14783743544
2025 1 16.4414284196 20.2242484433 1.28322818028
2024 1 16.6579643546 22.6192392874 1.39749376176
2041 1 15.8403143731 21.0051928361 3.44061148173
1854 1 18.1398512374 21.7391195092 3.18757643985
2020 1 15.912372036 23.4723760123 3.54289298256
2212 1 18.656635447 20.8935336598 0.998430802801
2017 1 18.9006381327 23.4048711399 0.808880437319
2027 1 22.1357729804 20.1565412311 0.139582731192
1858 2 19.8556813787 20.2672637986 2.86384999324
3367 2 22.5696991778 21.9174808432 1.89976114023
2043 1 20.3934156438 22.4338966548 2.46899872347
3530 1 21.4661949404 23.6875294721 0.448274050595
3388 1 24.2372148189 20.3436954694 2.32955777284
3365 1 24.6512574762 22.7778574341 2.14895944523
3371 1 26.0313168112 20.9505554641 0.530279385454
3387 1 26.7065879257 21.8094117352 2.65267262557
3370 1 25.9632599781 23.476195092 0.276272139469
3362 1 23.9207891547 21.9245526568 0.00119993622159
3390 1 28.251885173 20.1591611733 0.890474045347
3369 1 28.1970949885 22.6390249261 0.888068641457
3389 1 30.4536459134 21.8138082285 1.27235894647
3386 1 28.971931904 21.0056278011 3.07289872019
3385 1 28.9473413263 23.4651108451 3.06553712615
4711 1 32.7020163715 20.9914869287 1.68957677206
4710 1 32.6930856 23.4475184469 1.71518231812
3384 1 31.1821749116 22.6102441597 3.48051697934
3406 2 31.2570725221 20.0905047225 3.39158648096
4709 1 34.9185595179 22.5953643217 2.16896939501
4732 1 34.9238414902 20.1382192803 2.17041158914
4715 1 36.4164056139 20.9685966439 0.400562298974
4714 1 36.4504597422 23.4106559438 0.404381065379
4731 1 37.1603535617 21.7704044771 2.63223707672
4713 1 38.7371005609 22.5660868272 0.915825717299
4734 1 38.6115663573 20.1064091111 0.855808982015
4733 1 39.3283278536 20.9193391078 3.06294189104
4729 1 39.6107431699 23.3793617946 3.15607354936
675 1 40.9900247199 21.6897899162 1.31638525333
4918 1 42.3859425016 23.2174053272 2.54669633222
703 2 41.3657829381 20.0320753912 3.45164544816
878 1 0.592830421767 25.4311978986 1.90509961853
858 1 3.0753633631 25.1871190612 3.57169880541
1027 2 0.33482014574 27.6908316937 1.28950143656
845 2 3.97581236379 26.6843376833 1.64444930664
866 1 4.01783263605 24.2135958977 1.57084189264
849 1 6.21472766031 25.0948952869 1.20110140731
865 1 5.40559042884 25.9104174836 3.3975604011
848 1 6.2578046647 27.5223840702 1.27385794596
868 1 7.68233900663 24.2678103029 2.984778317
847 1 7.68591058027 26.7304046896 3.01273974842
851 1 9.92634692276 25.1344477453 2.59366060877
852 1 8.46893070701 25.9573135526 0.811581381463
2204 1 10.6980637049 24.3444080204 0.383808260157
2187 1 10.7152223701 26.848147695 0.42675620058
850 1 9.94611386087 27.5933903268 2.60299070251
2189 1 14.4166144719 26.7879510932 1.73575910254
2203 1 12.1599319123 25.9437320114 2.17605828934
2210 1 14.3611592951 24.2932988416 1.76042897166
2022 1 18.1521888343 24.1423083307 3.04995802223
2193 1 16.5058781914 25.0997957564 1.38238693401
2209 1 15.8896735788 25.9344013868 3.51859631167
2352 2 18.5159274411 25.7150618885 0.908297432501
2195 1 18.2998872743 26.8354913071 3.11002377674
2192 1 16.6891379424 27.6250903055 1.37036546679
3541 1 20.277180227 24.8824148031 2.27310597917
3534 1 22.2847745109 25.8589547327 1.21445918009
2211 2 20.7817395953 27.1352862938 2.2799940118
3363 1 22.5692667602 23.996481808 2.72571859927
3364 1 26.7017869519 24.2878449335 2.59597176338
3539 1 26.0801392445 25.9615058068 0.332564910421
3555 1 26.7792229268 26.7962570157 2.56767715232
3556 1 24.5717768737 25.2753515805 2.12463911489
3533 1 24.5497345936 27.6769868083 2.149500984
3361 1 23.7852333298 24.4032601592 0.0646768203972
3368 1 30.4819074344 24.2859963447 1.29686988793
3554 1 28.9931154714 25.9396548769 3.05132006009
3557 1 30.519070248 26.7685971166 1.28415402942
3558 1 28.2616985513 25.124038044 0.877262643029
3537 1 28.2763180031 27.6037594314 0.812734117468
4879 1 32.7268755859 25.9039168002 1.74241024735
3552 1 31.2427419326 27.5479579754 3.48874692118
3574 1 31.2213441369 25.0842131222 3.4976174847
4884 1 34.2319669041 26.7509813696 0.0185890545488
4877 1 34.9256824885 27.5162346197 2.19769036137
4900 1 34.9482756493 25.0482663983 2.17736691822
4708 1 37.2156847545 24.1909933319 2.66273247382
4883 1 36.4392050158 25.86608679 0.408029164494
4899 1 37.1372569506 26.6679630037 2.61952869574
4881 1 38.6539646646 27.4538465275 0.906291340093
4902 1 38.6208374657 24.9989706331 0.898891799287
4712 1 40.8330457447 24.4309126125 1.27362529269
4901 1 40.8796649237 26.7256975598 1.51477912955
4898 1 39.3632412993 25.8510067214 3.12144886443
674 1 41.596401069 25.2585512168 3.67812665316
1046 1 0.881145264232 29.1586668687 3.1214388791
5207 2 0.306373511153 30.6527954634 1.25605900058
1034 2 3.28079431395 29.5584371527 0.454937703794
1026 2 3.15764700951 29.8708143489 3.54915560317
1013 1 3.86213580398 31.6038933797 1.74115671546
844 1 5.30267300518 28.3856261515 3.39963970923
1017 1 6.01966164553 29.9881310803 1.24140537039
1033 1 5.33822658671 30.8627313083 3.54112270489
1036 1 7.54427015032 29.1879587286 3.02450016679
841 1 8.47368521285 28.43458994 0.860948411215
1019 2 9.68098771852 30.039342035 2.706024232
1020 1 8.34505228695 30.8600231241 0.843689195864
2372 1 10.7393142138 29.328982461 0.462179591824
2186 2 12.2658255301 28.3399778915 2.1174223386
2371 1 12.0651447535 30.8326204964 2.02642514583
2378 1 14.4404224687 29.2557492392 1.68446921746
2188 1 15.8374375475 28.3219483553 3.48791633055
2377 1 15.7445860805 30.6780751727 3.61303704406
2360 1 16.7151223199 30.103377275 1.46677916145
2194 1 19.3485931198 30.6287124311 1.37600822096
2361 1 18.0005177036 29.4290221192 3.40386597727
2191 1 19.0229417389 28.250986456 1.1807572352
2363 2 21.6455912243 30.5928968285 2.71427496557
3531 1 22.4590535366 28.4700156044 1.7235089039
2379 1 20.3073097218 28.9600856154 3.46644530439
2342 1 21.9310266034 30.3491431503 0.535659363642
3532 1 26.7124092174 29.2885145387 2.57163009367
3538 1 26.0213220104 28.4646416392 0.365722596086
3707 1 26.0241639617 30.9043115596 0.396636968661
3724 1 24.3236241924 30.1591263121 2.09478869683
3536 1 30.5287589867 29.236581971 1.25657187025
3553 1 29.0053408938 28.4192381167 3.0231270519
3722 1 29.0430466194 30.8910510317 3.02408168885
3726 1 28.286985528 30.0796326979 0.838932289698
4878 2 32.7338882583 28.3689754047 1.72412883011
5047 1 32.7383844947 30.8352155585 1.67926454909
3742 1 31.2655704683 30.0124044068 3.45161382554
5068 1 34.960745113 29.9733077053 2.14880783328
4876 1 37.1905747599 29.1297603324 2.5965308155
4882 1 36.4510544944 28.3218585938 0.406391906519
5051 1 36.5196905331 30.7596211016 0.381830994078
5067 1 37.2258872299 31.6139967854 2.56050820223
5070 1 38.7997786323 29.8891468368 0.819418200824
859 1 41.7201342393 27.7497550227 3.57722582217
4880 1 41.0512866149 29.1546187879 1.34098104818
4897 1 39.46206983 28.3122942622 3.0256527031
5066 2 39.2284718566 30.687914398 3.10750437797
5086 1 41.4895629437 30.5955040946 3.0994342696
5069 1 41.2081599879 31.5982957179 0.507168902679
5048 2 1.93746728966 32.922291165 2.76865960112
1202 1 3.84586979279 34.0434086456 1.70783826216
1015 1 7.59506146834 31.6497252456 3.03384897718
1016 1 6.10524986741 32.4530860695 1.27076917129
1185 1 6.12703489743 34.9190690673 1.25260973677
1025 1 5.45564093082 33.3003599673 3.49395918097
1204 1 7.66759288202 34.120642746 3.03012093888
2355 2 10.5612892423 31.8691629628 0.319217316736
1009 1 8.37706959591 33.3203930636 0.831195197796
1018 1 9.85717569606 32.4789376355 2.58903356898
1187 1 9.91615464581 34.9508049328 2.61689760036
2540 1 10.643113695 34.207636655 0.406362672305
2357 1 14.4309840643 31.6924883789 1.69516759913
2354 1 12.0860130677 33.2791335001 2.14861777708
2546 1 14.282514517 34.1345135152 1.73527934845
2358 1 17.7619165625 31.8310105268 3.05444378817
2527 1 18.3214637893 34.2289815791 3.37231328411
2688 1 16.9246496527 32.9365225175 1.08747168036
2356 1 15.7779598798 33.2171493773 3.27861523915
2529 1 16.3795814417 35.1860630535 1.54386454225
2673 1 18.7035982549 35.0373303242 1.03191531077
2362 2 19.4071504667 32.981957645 1.73175364257
2682 2 22.4862088117 33.7473506561 1.97732210949
2531 1 21.0083449804 34.554629445 0.506880610973
2532 1 20.5730297412 35.3389133848 2.79319167102
3723 1 26.8120196531 31.7445502507 2.5878231195
3700 1 26.7865959244 34.2177291833 2.58973779363
3701 1 24.6171161043 32.6539644619 2.22753594073
3706 1 26.0086052115 33.3880359509 0.360681609875
3892 1 24.554113496 35.0682628887 2.17176557025
3725 1 30.5224922072 31.6838459846 1.24273739869
3704 2 30.5433068434 34.1584037802 1.25697634452
3705 1 28.2745905514 32.5492249154 0.812117845392
3721 1 29.0217585601 33.3595642096 3.02881129719
3894 1 28.3122271678 35.0077615046 0.835298742633
5046 1 32.7779521582 33.288925066 1.6948504045
3910 1 31.2695363498 34.9724972074 3.46614162428
3720 1 31.2579941826 32.491077525 3.44751070983
5045 1 34.9979861147 32.4418253534 2.14043878705
5236 1 35.0737249275 34.9091541 2.15222946071
5044 1 37.3971909092 34.0366002402 2.60023153623
5050 1 36.569648023 33.222345505 0.428990742782
5049 1 38.8155860666 32.2663069955 0.813388471854
1010 1 42.4792026171 32.7998837121 2.23949531073
5238 1 38.9788298394 34.7692179608 0.891947445609
5065 1 39.9810405193 33.0057402451 2.79654274388
5237 2 41.4995799517 34.7594062317 1.48109329686
5234 1 39.5274696222 35.5291866726 3.10618877904
1178 2 1.90668497995 35.9422821781 1.87118151399
1193 1 3.13308116834 37.5550806139 3.34290628253
20 1 0.608464350444 37.7846248207 2.20349409424
1339 1 2.43383569948 37.6949864741 0.239291532474
1181 1 4.12132003931 36.4447617248 1.56020605682
1201 1 5.38108433707 35.7318374413 3.49346120223
26 1 4.33960052064 38.9000219699 1.68741781111
1184 1 6.29470420591 37.3810910131 1.22114683294
1180 1 5.60103095371 38.1323065026 3.47946686485
1183 1 7.6835653241 36.5697786814 3.06047048982
28 1 7.83382311778 39.0425126617 3.08609057512
1188 1 8.43024951032 35.7818904151 0.839261927505
1177 1 8.51063643061 38.2568657302 0.823746670502
1186 1 9.93709772911 37.4266740336 2.61930051277
2523 1 10.7110140075 36.6516861798 0.43059126122
1364 1 10.7313707407 39.0981993439 0.376648695069
1370 2 14.2921357972 39.2840408375 1.6346023742
2539 1 12.159048995 35.7799939428 2.17452235507
2522 1 12.1694865201 38.2604241885 2.16644783312
2525 1 14.3705068247 36.6013522694 1.69091601929
1351 1 18.2675014836 38.8658464317 2.41018560964
1372 1 18.1446873033 36.5758358216 2.95379882289
2524 1 15.8703836265 37.981219534 2.68306228416
2528 1 17.1508455958 37.264829295 0.854800220633
2716 2 20.5036221517 39.1348168247 1.30552440301
2521 1 19.9545021288 36.9374817003 0.930357366858
3702 1 22.4884678438 36.1329317611 1.80663182821
3870 1 22.5472606748 38.8638633714 3.20941672239
2530 1 20.5890445211 37.6511552902 3.1512540356
3865 1 22.6638205338 38.3170953019 0.83736868158
3875 1 26.1142989354 35.8410944479 0.439817200929
3869 1 24.4920515488 37.4770224407 2.27804033246
3874 1 25.7646827637 38.3877361291 0.428749508905
3891 1 26.7469407242 36.6991932283 2.64088167814
3885 1 26.7041450477 39.1579655811 2.6201231111
3890 1 29.0089859299 35.8336236327 3.0428113209
3872 1 30.5036045009 39.0890505654 1.27150853872
3873 1 28.2362291222 37.4877121034 0.864904869892
3889 1 28.9924864137 38.2995677231 3.04632299275
3893 1 30.5259120392 36.6359250069 1.26988716734
5215 1 32.7960274195 35.7645921532 1.70225138509
5214 1 32.7852776434 38.2396680821 1.69877697814
3888 1 31.2639516937 37.4400138344 3.45847349004
5213 1 35.0449046388 37.3908359148 2.15256940741
5219 1 36.6396992836 35.6884406217 0.409154031732
5212 1 37.2700292898 39.031364194 2.64410314727
5218 1 36.5777026185 38.1872113414 0.410929955256
5235 1 37.277918488 36.5055165075 2.63711554363
5217 1 38.7614738079 37.2432782458 0.88087119474
4078 1 41.452748706 39.1789048864 3.04983607321
5233 1 39.3751199964 37.9519434817 3.14742962139
1179 1 41.0408140768 36.937914444 1.66476151615
165 1 42.3425290974 38.845202516 0.322435227976
186 1 3.55363829946 2.99747673399 3.90586038649
37 1 2.44492653455 1.19939920922 5.80416665875
13 1 2.19528164815 3.46800118156 6.04506906438
18 1 3.42441509357 0.385371136885 3.83194920501
16 1 4.75293806215 1.91022437974 5.69273028104
23 1 7.01897715722 2.74164966458 5.32090440987
24 1 7.04307326142 0.266384897614 5.2951077693
22 1 8.47666871202 1.93554070056 7.06280316592
27 1 9.27128346271 1.15417214747 4.84072089132
1375 1 10.6852335704 2.80106465749 6.59114101452
1376 1 10.7379542327 0.32086679517 6.61125466979
6 1 9.22056128594 3.65135847936 4.81101058764
1358 1 11.5189480664 1.98371547804 4.3942393627
1361 1 13.7950780151 2.80097438607 3.98524840388
1362 1 13.6788530576 0.229940356008 3.95419409914
1360 1 15.1294577878 1.90527457625 5.69635564693
1381 1 12.9620495427 1.13543104848 6.15810152887
1357 1 12.9111809794 3.62778658104 6.19579548003
1348 1 16.2012851939 3.5897598516 3.7345271456
1368 2 18.9301892988 1.45526447145 5.4906096703
1359 1 17.0492963447 3.0326731515 6.19234318682
1371 1 20.3859728858 2.82829443321 4.11249468961
2706 2 22.393505858 2.07974824139 6.99096773635
2526 1 21.186130568 0.627361839276 5.41717250921
2695 2 25.3816547528 1.45406226867 4.34353845567
2730 1 26.1420381328 1.96600950796 6.62714351482
2731 1 24.1536211787 3.08702236713 6.1938220669
2704 1 25.5216898243 3.81120521209 4.40368989251
2733 1 27.5197210268 0.383065351196 4.81681632546
2708 1 27.6167595106 2.82395091226 4.83527795896
2732 1 29.827568607 1.99995529317 5.24934124619
2729 1 28.3511718491 1.15996863321 7.01570862934
2728 1 28.3966363169 3.6298944588 7.04419970582
4055 1 33.543728446 1.99339490114 3.90348556841
4048 1 34.3059013 2.80746609737 6.11817271981
4050 1 32.0613050958 1.16965641387 5.67185701191
4075 1 34.2763334643 0.323572917383 6.11490000451
4049 1 32.0810795282 3.64476981712 5.68280073669
4052 1 38.0304517879 2.82104229875 4.82469236241
4053 1 35.8139350769 3.63960916294 4.37336099167
4054 1 35.7581725983 1.16959159641 4.34491229603
4074 1 36.5195970602 1.97771076173 6.55499389177
4077 1 37.9015281008 0.325122005583 4.86988762151
4073 1 38.7400001687 1.17233203799 7.05343313458
4072 1 38.861044307 3.68622335291 7.00981161279
32 1 42.6327663718 2.11112174875 5.44284289742
4076 2 40.1328277172 2.01489138015 5.48586278509
182 1 0.608001371332 6.71745656677 4.85785644467
206 1 0.266623805783 4.2587713241 4.05351238771
392 2 2.57296881231 5.13384203337 4.53730053873
224 1 2.2284441893 5.81633053539 6.61326613957
200 1 0.0557622646368 6.81698613748 7.09767266394
211 1 4.56109749442 4.348142348 5.78565552494
184 1 4.40436063091 6.89870237229 5.65245732441
192 1 6.76422169866 5.1454985674 5.29804568273
191 2 6.9382168885 7.57100422614 5.56471647525
190 1 8.40690991095 6.83333306082 7.07581543016
195 1 9.07130887165 6.10728702209 4.78296929181
213 1 8.3650296715 4.38404643168 7.01979434094
1526 1 11.397662858 6.93145841234 4.36916170347
1544 1 10.6138290979 5.28578848411 6.55221539302
1543 1 10.5924143235 7.74591577353 6.53840199326
1550 1 11.4757384519 4.47074025337 4.38149696545
1530 1 13.7474311752 5.28397582879 3.97540537927
1549 1 12.898476208 6.13152684207 6.14177334515
1555 1 15.0687043337 4.44382503957 5.83065513813
1528 1 15.2400438066 6.94259697006 5.87563298967
1529 1 13.6859442112 7.74123568789 3.95555471394
1367 1 18.6625051818 4.09766691704 4.76419932531
1536 1 17.1822642213 5.54047555436 5.61998249958
1535 1 17.4148803732 7.84150498548 5.09152960141
1350 1 18.7464507231 4.45602169365 7.3023420315
1522 1 19.5120864951 6.62848853669 5.65739776667
2726 2 20.5997752007 4.40217393604 6.10248051934
2873 1 23.1598797117 7.18390298401 4.07723076159
2874 1 21.9230636804 6.11642247902 5.84808801715
2691 2 23.4485829002 4.6881293474 4.34895546379
2899 1 24.1189647523 5.5098096442 6.35168744131
2878 1 25.4184503455 6.26305449062 4.44076624781
2898 1 26.1205895449 7.00626654619 6.64032161154
2703 1 26.247428505 4.49376788777 6.67664013868
2901 1 27.6044829604 5.31330075636 4.82783986631
2707 1 29.8431076403 4.4780647646 5.25666538059
2900 1 29.8520446684 6.95696755431 5.27131954201
2897 1 28.3725213188 6.14077236738 7.03610735932
2876 1 27.6009488512 7.80460060859 4.85274618491
4035 1 33.5829675289 4.4630456081 3.92601733135
4218 1 32.1024810275 6.11659481563 5.70046572418