ITEM: TIMESTEP
8000
ITEM: NUMBER OF ATOMS
5376
ITEM: BOX BOUNDS pp pp pp
0.0 42.7297273569
0.0 39.5600404449
0.0 37.0050293879
ITEM: ATOMS id type x y z
163 1 1.90358988707 2.73373012571 0.86407158399
5216 1 1.90045980494 0.329140859668 1.81935856618
14 1 1.21742460373 2.2351728266 3.39563281387
164 2 3.27999618716 0.64058924744 0.125252150459
5 1 3.85410013254 1.9297396642 1.94942838401
8 1 6.18105023427 2.82911589071 1.07956300812
9 2 6.46477353551 0.252607109969 1.30209068582
25 1 5.56856898539 1.11291145292 3.40459409931
4 1 5.58025433105 3.43850591116 3.34419142446
7 1 7.74745479192 2.00540265442 2.90184109435
10 1 9.99694643259 2.87733164872 2.51261973091
11 1 10.0167182368 0.418393747543 2.51290997748
12 1 8.50230959907 1.23429110089 0.701182000651
1347 1 10.7538664706 2.04543961526 0.32683907438
1 1 8.47674675294 3.65943971178 0.716134299826
1349 1 14.4637174996 2.1680108156 1.68196863088
1363 1 12.2401819137 1.26691345852 2.10463160902
1346 1 12.2942149001 3.74473340845 2.09550933177
1352 1 16.598871557 2.74482520245 1.09393655203
1353 1 16.7225231314 0.419764488155 1.03270938625
1369 1 15.8815711859 1.16734277268 3.44237355358
1540 1 18.1762741 1.35043895121 2.8123802727
1356 1 19.0982361664 0.283865216086 0.366091364505
1519 2 18.4225530762 3.56219294532 2.31354373132
1348 1 16.0464333464 3.8151813605 3.24846665646
1345 1 18.7807878577 2.73562365906 0.311319979053
2710 1 22.8580647146 1.30222094397 2.74268579513
2863 1 20.388447761 2.10227236758 2.0715414005
2689 1 22.3300787785 3.35676089666 1.75820417509
2716 1 21.5656301247 0.15321654742 1.0130661767
2693 1 23.7388772528 1.97055438439 0.229435910089
2694 1 24.6704961807 2.91417833733 2.26835618041
2699 1 26.0809664194 1.22662076919 0.372244649185
2698 1 26.135095897 3.67309890498 0.442902914328
3868 1 26.8890390326 2.0607223375 2.59824599304
2709 2 24.904296866 0.432896463722 2.18702053156
2697 1 28.3302099256 2.84949094381 0.842317959104
2714 1 29.0499267301 1.15564582462 3.0783412046
2717 1 30.5126126857 1.98739058655 1.29590861012
2718 1 28.340431167 0.36442848775 0.827715245666
2713 1 29.0562533924 3.67596956426 3.04532298983
4039 2 32.7093549788 1.2296059173 1.64016935871
4038 1 32.7296787469 3.65350347501 1.73482373841
2734 1 31.2835649352 0.324124614611 3.50208791793
2712 1 31.2619544967 2.79664705561 3.49035756874
4060 1 34.9239900425 0.329140824425 2.20069785516
4037 1 34.9565639974 2.78576587023 2.18141415273
4043 1 36.4742959303 1.15413671421 0.469089801389
4059 1 37.1828208871 1.98734784137 2.63894082969
4042 1 36.5126136203 3.61551074662 0.462885065061
4041 1 38.7852117287 2.83896524419 0.914648881075
4062 2 38.6537617206 0.325991381086 0.937364488481
38 1 42.4917398935 1.31303459567 1.53516826155
4061 2 41.1058769309 3.07140019488 0.801631781644
4058 1 39.3630518106 1.10601058204 3.1044560006
4057 2 39.2380404964 3.48952407867 3.33382519854
4056 1 41.5102888409 2.92875203733 3.3966593238
4078 1 41.6091173577 0.506110862602 3.67602749019
187 1 0.675743459783 6.52778103712 1.88049278832
193 1 2.17142262993 4.95146220428 2.82130170298
332 1 1.97516104265 5.33552411642 0.210395582066
173 1 3.45003462324 6.82465184193 1.50150004558
185 1 2.99902452126 7.40454938545 3.6452430302
194 2 3.8353430137 4.18542252609 1.59818157015
17 1 0.103070274644 4.12461565746 1.81500706801
177 2 6.57775714687 5.34720151733 1.11173940958
172 1 4.93844361833 5.67838298424 3.18116519603
176 1 6.02593181589 7.6055507414 1.15577074006
175 1 7.57785114529 6.85882276918 2.95030744375
196 1 7.70311538636 4.44737980524 2.9282671292
179 1 9.98931849954 5.32424114739 2.56223147056
180 1 8.58941479977 6.17711563967 0.740630284974
1532 1 10.7171037955 4.50955091046 0.345584851776
1515 1 10.7868821746 6.99169037757 0.389144552684
178 1 9.87645739784 7.7774307756 2.572542167
1517 2 14.2716626826 7.28090120959 2.0836999338
1531 1 12.2168454264 6.18339669775 2.13464758492
1538 1 14.5704695313 4.68858825486 1.58047630911
1675 1 13.0325853369 7.78201641411 0.0165643438965
1537 1 15.9520612905 6.25149633606 3.38010085633
1521 1 17.0026410911 5.09951230661 1.02753583405
1839 1 18.4071254545 5.63480526248 3.03280491813
1520 2 17.4858703097 7.30532872437 1.86998881243
1523 1 20.4741610447 4.08090279701 3.46072947204
1524 1 20.1292038959 4.75957371714 1.10514622364
2879 1 20.7958819242 6.3589294833 3.30260038707
2868 1 22.3365363481 5.72873383966 1.65993475643
1842 1 19.7595318712 7.67449753145 1.58163343704
2692 1 26.8339973941 4.54702121873 2.63460735991
2867 1 25.9887620859 6.2055173248 0.408128012078
2883 1 26.7500422505 7.03162330564 2.6204602774
2884 1 24.6159309904 5.32692713633 2.2015599281
2861 1 24.5222952193 7.75942228336 2.22169973393
2857 1 23.7301933998 7.09099876376 0.134294680002
2715 1 24.0517732716 4.42151462088 0.0126327392707
2696 1 30.4974944691 4.48368542962 1.27831908426
2882 1 29.0011734922 6.17730204509 3.03716088432
2885 1 30.4588844075 6.97734646141 1.27686608927
2886 1 28.2512340914 5.35347591409 0.841235373121
2865 1 28.1877822543 7.84400841092 0.843749651105
4207 1 32.7086254908 6.11367354171 1.73398852694
2880 1 31.2250469586 7.78003828018 3.48266307154
2902 1 31.2274947409 5.29310514238 3.48645584401
4228 1 34.9567918466 5.26015355998 2.19042930181
4205 1 34.9723260602 7.74060610371 2.18011622929
4036 1 37.1896566943 4.43845662198 2.64447655629
4211 1 36.4393142921 6.09290801998 0.446280298686
4227 1 37.2339254891 6.88708829691 2.62523299495
4230 2 38.6370993065 5.40053548495 0.866348419026
4209 1 38.7665146824 7.73462858271 0.910497273216
4226 1 39.4595003755 6.00908812062 3.13096267619
4397 1 40.9598363355 6.56891399228 1.35626904943
4246 2 41.679223981 5.5079349684 3.35091954171
4229 1 1.30833551328 8.74024120655 1.97395731867
500 2 2.60949704057 10.8362476915 2.56524253475
315 1 2.47745456984 10.3453952196 0.0643433227278
2 1 0.00525313649589 9.94499988805 0.036889124859
355 1 3.96963772415 9.18923711786 1.67951668343
345 1 6.21322406412 10.1451334343 1.12599194803
361 1 5.3559132429 8.03466465433 3.4494714248
353 2 5.68531407653 10.2015493601 3.26435686266
364 1 7.69452918853 9.28422937842 2.99855479449
343 1 7.61709128261 11.8108541943 3.01594238785
341 1 4.43099720759 11.8187633481 1.8178681456
169 1 8.38756163038 8.61412700674 0.814801196446
347 1 9.87199273898 10.2774444528 2.62281236002
348 1 8.43781779057 11.0942285389 0.793424614489
1700 1 10.6754740056 9.45656564063 0.424567680633
1514 1 12.1273307472 8.65917393233 2.21792825283
1699 1 12.1307380119 11.1449060222 2.19782864841
1706 1 14.3137833959 9.55065847786 1.80588108472
1689 2 16.3532558216 10.3362509258 1.36566028741
1705 1 16.0174700494 11.1711399396 3.55626179736
1708 1 18.396649646 9.65982092876 2.63738044182
1838 2 19.1531471745 10.0055601064 0.381544029631
1516 1 16.0334199008 8.73720067631 3.41746149091
2862 2 22.1021193472 8.02797048594 1.86315853055
3031 1 21.2196543228 10.0185200061 1.03550233641
3030 1 22.5079255218 11.8242875783 2.16412950879
1692 2 20.4545524601 11.0716755077 3.2211139901
2860 1 26.7436133937 9.5055375795 2.63075945714
2866 1 25.8977696901 8.7119055478 0.45171208818
3035 1 25.6833616402 11.2616037445 0.412221051719
3052 2 24.6628584215 10.3728152657 2.39662176185
3036 1 23.6162036507 9.50832626444 0.565334390131
2864 1 30.4405348333 9.46108292472 1.2778476386
2881 1 28.9809434045 8.6562118676 3.03925603269
3054 1 28.1416130438 10.3306283025 0.836805476545
3050 1 28.995296573 11.1370294629 3.03001754353
4206 1 32.7100021145 8.59634870585 1.72781765653
4375 1 32.7297265823 11.0761211102 1.73612132639
3070 1 31.2309692054 10.263415987 3.48187065437
4396 1 34.9818456704 10.229084852 2.17623859315
4204 1 37.2085672618 9.37195706735 2.63561076181
4210 1 36.4914882007 8.56845420291 0.45029550041
4379 1 36.5226822306 11.0391004222 0.426413392083
4395 1 37.1645951725 11.8594752878 2.61618653505
4398 1 38.7872832985 10.1668595008 0.93917602367
4225 1 39.4001721571 8.46024748252 3.09842481651
4394 2 39.2386519852 11.0311263432 3.18447257492
4208 1 41.0303255804 8.94484268085 1.3068596501
374 2 42.2983532436 10.3013013465 2.51730133173
4224 1 41.7912075123 8.06484800716 3.45236589855
542 1 40.8969341802 11.6817770752 1.43276879787
170 2 0.183287806313 13.2165629865 1.77447864455
4582 1 1.31143892921 14.316325029 3.36676033755
499 2 2.89733971027 12.6916553354 0.117063233903
530 1 3.96699505216 14.2439037324 1.75744435919
340 2 5.71640217925 13.4407119774 3.30945739566
344 1 6.43008580691 12.7818399497 1.07395553089
513 1 6.21386470769 15.1733162193 1.25435885045
532 1 7.78114996934 14.3535561954 2.99248440679
1683 1 10.6937981194 11.9442209471 0.404623574325
337 1 8.56183153593 13.5766180337 0.770970287575
346 1 9.88384524327 12.7380710855 2.61054867074
515 1 9.97851686685 15.2240219323 2.54949603365
1868 1 10.7547846452 14.4262055436 0.371047757848
1685 1 14.3883863215 11.9869437367 1.81104831159
1682 1 12.1368564706 13.6138274406 2.16540526749
1874 1 14.3933405463 14.4415965059 1.75561752062
1843 1 12.9596879016 12.7692879854 0.00435503920915
1688 1 18.3540317371 12.0396791684 3.39295672384
1684 1 15.8544578677 13.629575383 3.52017488337
1876 2 18.8847427279 13.2316250174 1.22109610628
1857 1 16.6678666172 15.1520824326 1.3538587459
1833 1 16.6633572044 12.7262378586 1.42920048966
1855 1 18.1881478786 14.4031732779 3.18593291953
1849 1 18.9441268957 15.5366796404 0.784576864584
2016 1 21.2810039921 12.9440969649 0.476557868418
3037 2 22.3471873108 14.345873947 1.90669366761
1681 1 20.5225286242 13.5599957968 3.29812154755
3051 1 26.7417427845 11.9855040838 2.62339348456
3028 1 26.7515115584 14.4808158322 2.62412816485
3029 1 24.5445638966 12.9112632284 2.30453073904
3034 1 26.0056693708 13.66981663 0.44676148204
3220 1 24.4682740013 15.3666883111 2.20057265668
3025 1 23.6922923126 13.6100469532 0.0851592618235
3053 1 30.4806373298 11.9363570443 1.29494936778
3032 1 30.4915081274 14.4168034087 1.32396043477
3033 1 28.2175779592 12.7837459559 0.867660190694
3222 1 28.2301685644 15.2822243638 0.882644570673
3049 1 28.9970998118 13.6128548842 3.07037426086
4374 1 32.7382099583 13.5596180772 1.75749310193
4369 1 34.2671582618 14.3641435269 0.0191987361763
3048 1 31.2340643341 12.7449379117 3.50634590411
3238 1 31.2683801134 15.2207227317 3.5278918482
4373 1 34.9740733085 12.7134055491 2.18161018854
4564 1 35.0256705459 15.1895151374 2.21311674505
4372 1 37.2668465753 14.3367692932 2.66824108719
4378 1 36.5248135773 13.5284541417 0.452933912631
4377 1 38.7473432765 12.6654771187 0.912843519964
4566 1 38.7591110831 15.1577541431 0.911647101931
339 1 40.8105392006 14.1119840416 1.35186252995
4393 1 39.4870622513 13.4334896636 3.15702477579
4392 1 41.7992308326 12.6297853252 3.66245679685
349 1 41.8513826105 15.1315317988 3.32757698636
523 2 0.93506827155 16.3666201791 1.72996298705
4703 1 1.43801077998 18.6059333404 1.80706279599
698 1 3.86423012515 19.289196752 1.58348950125
509 1 3.68508794787 16.7848705231 1.79469673474
529 1 5.47464380673 15.9208785079 3.4164231289
508 1 5.38444761346 18.4816715256 3.35848574699
512 1 6.08162157309 17.6159684025 1.2090110907
511 1 7.65969523546 16.8346849569 2.96128888874
700 1 7.63637031231 19.3096529896 2.93431004671
516 1 8.47002718409 16.025921702 0.800265619548
505 1 8.4065180993 18.4843637021 0.76705579405
514 1 9.92490997824 17.6771330802 2.52404785467
1851 1 10.7117879271 16.8934323281 0.333883927006
2036 1 10.6900929877 19.3457133793 0.341126712523
1850 1 12.171535283 18.5696481214 2.12126877646
1853 1 14.4899607612 16.9193031635 1.71473202768
1867 2 12.2311207397 16.1641242297 1.98497383227
2042 1 14.4444230642 19.3214663773 1.6839819846
1852 1 16.3304445941 18.5342831499 3.21668179067
1873 1 15.883501848 16.0952774383 3.49821840581
1856 1 16.7770107667 17.5137630094 1.16181880309
2044 1 18.2886417836 16.739758895 2.91592008437
2023 1 18.9276824518 18.9693963654 1.98563218272
3198 1 22.3344201191 18.4453281592 2.04881486902
3026 2 20.479400732 17.0499570617 1.38980174097
2027 1 20.7410006922 19.6016715588 0.709731782359
3209 1 20.8106635156 17.4077320045 3.62766399102
3203 1 25.9043259925 16.0880326454 0.407774187232
3196 1 26.7909708832 19.40693906 2.66898107502
3197 1 24.6432858151 17.855423255 2.31397496261
3202 1 25.9541135938 18.5850616036 0.450983037586
3219 1 26.8233922002 16.9321949963 2.63277353577
3204 2 23.7280133193 17.1198447909 0.358039624347
3193 1 23.587996983 19.4215249212 0.0666547020876
3218 1 29.0472874122 16.0855856035 3.09410119155
3200 1 30.5389206782 19.3538276693 1.35258262249
3201 1 28.2521026746 17.7432636791 0.881746922599
3217 1 29.0501286134 18.5544423731 3.11667660314
3221 1 30.5176095022 16.885769179 1.3246114651
4543 1 32.7729294185 16.0347258057 1.77572023401
4542 1 32.8029383355 18.5019931106 1.78887323174
4548 1 34.2958180614 16.842471058 0.0323953231183
3216 1 31.2802395891 17.6820113906 3.52115057372
4537 1 34.3436506572 19.3116054774 0.0452840000644
4541 1 35.069705096 17.661706167 2.22423448446
4547 1 36.5449756211 16.0093945103 0.471339778622
4540 1 37.3800837383 19.2862152612 2.65994286634
4546 1 36.6203530839 18.4761172075 0.471306527558
4563 1 37.3287934212 16.8133285642 2.66790131722
4562 1 39.5602439923 15.9101384984 3.12510141957
4545 1 38.9032994856 17.6259507811 0.927376438624
4544 1 41.2510753875 19.2360165322 1.41303183959
4565 1 41.1076804992 16.6833295929 1.43101459113
4561 1 39.6368534227 18.3854604879 3.12591970983
4560 1 41.9952507937 17.6035599217 3.51273520723
4750 1 1.7007482752 21.0272347286 1.70907306981
691 1 1.89674603936 23.4075710023 1.78538261763
689 1 3.26295228777 22.7697886737 3.61653821731
677 1 4.01415135669 21.7542657064 1.51642452659
680 1 6.2474400444 22.6200829199 1.15405713965
681 1 6.16747048825 20.1102622806 1.16098753159
697 1 5.50563490018 21.0241397964 3.31141822135
676 1 5.48435072235 23.505598074 3.38139742615
679 1 7.73241856038 21.8047219964 2.92271498254
682 1 9.981978961 22.6376476878 2.50373150895
683 1 9.90196051515 20.1474608903 2.51679345139
684 1 8.45033087288 20.9651047774 0.744267764394
673 1 8.50667505098 23.4575667075 0.74092004939
2019 1 10.7058177479 21.8265376123 0.303817348105
2021 1 14.4383483578 21.8356638507 1.62316525176
2035 1 12.1429887439 21.0247653039 2.0480319534
2018 1 12.2287428714 23.5032407355 2.05472082652
2025 1 16.5983310352 20.0214954406 1.24679387705
2024 1 16.6516149541 22.4312286936 0.840834332135
2041 1 15.7056231243 20.9533289271 3.39273728001
1854 1 18.0002764503 20.9296906906 3.07507765977
2020 1 16.1079664596 23.3728816006 3.37609657173
2022 2 18.2583017278 23.1699822077 2.09741259718
2212 1 18.735053856 21.114621039 0.65386976716
2017 1 19.3752863959 23.6533143767 0.120416492739
1858 1 20.6646055022 19.9255490927 3.59380552355
3367 1 22.3461603021 20.9413478619 1.90447032232
3541 2 21.8833580662 23.2739420682 2.719984417
2043 1 20.1683664944 21.8825344711 2.3443348839
3373 2 21.0148551977 21.8458957688 0.0530562555447
3388 1 24.5190823868 20.2976813691 2.26620104231
3365 1 24.2662344598 22.7835506399 2.21030640229
3371 1 25.9564991572 21.007730975 0.527465500853
3387 1 26.7211185085 21.8908727429 2.67281172187
3370 1 26.0161311168 23.4327334384 0.653804769722
3390 1 28.2576465304 20.2109024292 0.910247440065
3369 1 28.3231985753 22.6784238546 1.00119752656
3389 1 30.5660392793 21.8215709659 1.39069704197
3386 1 29.0249813544 21.0120974804 3.13369943846
3385 1 29.0144570062 23.4872511941 3.15953316639
4711 1 32.8178478406 20.9675688464 1.81218702423
4716 1 34.3178125536 21.7879321949 0.0247192024105
4710 1 32.7560371487 23.4426926836 1.81764535519
3384 1 31.2666956096 22.6097794594 3.59534357208
3406 1 31.2914326299 20.1465477112 3.57227902029
4709 1 35.019619557 22.5908276492 2.24881304886
4732 1 35.0916987793 20.1260971309 2.23403001822
4715 1 36.6170369616 20.9430108227 0.454254114832
4714 1 36.4979604382 23.4114768189 0.469742835814
4731 1 37.280526104 21.757267204 2.67412561781
4713 1 38.7185180161 22.5220942222 0.873590962941
4734 1 38.9290470277 20.0819757879 0.856149682
4733 1 39.4506731932 20.8348340279 3.09894921354
4729 1 39.7147267177 23.3819321395 3.0647720584
675 2 40.8123635217 21.7152290955 1.37889783708
4918 1 42.3630448575 23.2285708326 2.13637595684
878 1 0.761836757558 25.5093634043 1.86198970166
858 1 3.22754822817 25.2621594835 3.46581793284
1003 1 2.37588926415 27.5012637594 0.0169802805605
866 1 4.10147206186 24.2147139218 1.504401352
845 2 4.1383461833 26.6843563924 1.61536686229
849 1 6.30281890976 25.0885314054 1.18362343569
865 1 5.48435632789 25.9538950659 3.38743271647
848 1 6.37238373359 27.5269921815 1.20880611428
868 1 7.74468526607 24.2819136153 2.94355485163
847 1 7.76375245794 26.7503344115 2.95501226406
851 1 9.99051682437 25.1242296283 2.50187236844
852 1 8.53068442578 25.9459192673 0.737582401339
2204 1 10.7499824712 24.316270744 0.295439266953
2187 1 10.7647450476 26.8052669994 0.296052622875
850 1 9.99586672731 27.5906773598 2.49082015957
2189 1 14.4806625495 26.747619559 1.63045918688
2203 1 12.2339404779 25.9694707293 2.06091161342
2210 1 14.5369597391 24.2794807906 1.65189973442
2193 1 16.8471486081 24.9833457431 1.29685130148
2209 1 15.9623724722 25.9186766799 3.40223781296
2211 1 18.3325935222 26.7746621191 3.17044233598
2352 2 18.6715745379 26.1057824969 0.801738248087
2192 1 16.6491300147 27.5042592269 1.17128168777
2195 1 19.9152956293 24.7393123265 2.24838679643
3366 2 22.8770822385 26.5389305884 2.84100026946
3534 1 20.7971067048 27.026809859 1.84928359479
3540 1 23.1234456505 27.0595199612 0.305223872174
3530 2 21.5646981791 25.1984375317 0.154902336665
3364 1 26.7572662579 24.3609570391 2.70026133197
3539 1 25.8183981258 26.0228351176 0.320370617407
3555 1 26.7173253556 26.7933857656 2.66314004505
3556 1 24.6362618317 25.2288748988 2.11878418214
3368 1 30.4786706416 24.2996383821 1.3787944505
3554 1 28.9643064534 25.9335467334 3.14072286893
3557 1 30.4623930457 26.7582107393 1.3851477325
3558 1 28.1641919466 25.1552662516 0.905714211628
3537 1 28.1765554722 27.610275397 0.896187703127
4879 1 32.731293894 25.8926517533 1.83521384457
3552 1 31.2199651919 27.5399238787 3.59573379893
3574 1 31.2316876928 25.0826898761 3.58987685555
4884 1 34.244058282 26.7224604906 0.113461757958
4705 1 34.2380820802 24.2536149049 0.0371934779456
4877 1 34.9920037025 27.5217880898 2.2902163801
4900 1 35.0093127219 25.057332805 2.25847817667
4708 1 37.3215231376 24.202676987 2.69377141498
4883 1 36.4942613243 25.8774140074 0.498160782769
4899 1 37.2513330936 26.7075388132 2.69854319596
4881 1 38.7405428068 27.5805095706 0.966227395348
4902 1 38.7311511953 25.001376316 0.913424676922
4712 2 41.0139120265 25.1087085201 1.67899030223
4901 1 41.2420215811 27.2821955129 1.74562774925
4898 1 39.4242420752 25.8745922348 3.13807859229
1027 2 0.72726744184 27.7782040044 1.44898258474
1046 1 1.83892980804 29.5659983707 2.23125070003
5207 2 0.304273241322 31.0178428483 1.64937901643
1034 2 3.49339054167 29.6557905662 0.522935022706
844 1 5.38094870074 28.4117962696 3.30188364899
1017 1 6.10602099762 30.0089852473 1.13844576763
1033 1 5.49503130909 30.9246332722 3.34896818994
1036 1 7.66153881168 29.2247713176 2.89423975226
841 1 8.53302499782 28.4295690298 0.738865171747
1019 2 9.95291770086 30.0711060253 2.47672116475
1020 1 8.43758339132 30.8791440452 0.725295832156
2372 1 10.7735524922 29.2796274848 0.291619539696
2186 1 12.2426969562 28.4466168259 2.0616451105
2371 1 12.2245093723 30.9270729375 2.05450594269
2378 1 14.4993779214 29.2617669438 1.63830670241
2188 1 16.0445839501 28.338628945 3.30053746862
2377 1 15.84724905 30.806577794 3.41743941264
2191 1 18.6485493342 28.5304951984 1.67846234287
2360 1 16.7602519003 30.1303000347 1.30389511901
2194 1 19.0439180917 30.9082668698 0.872392548123
2363 2 21.0873673057 31.0578863863 2.21032739638
3531 1 22.4011723758 29.0102788278 1.96936354012
2379 1 20.3921810413 29.0291360687 3.5212932286
3708 1 20.7258942595 28.9480878435 0.413440081548
3533 1 24.579680972 27.7782096577 2.17961933861
3532 1 26.7450275229 29.2680723255 2.64039685484
3538 1 25.8775737643 28.4900775122 0.403703036283
3707 1 26.0359277107 30.9412638664 0.467206194317
3724 1 24.5073896083 30.1599331217 2.20454753739
3536 1 30.4809998145 29.2170238854 1.38500582674
3553 1 28.9759747329 28.3912350349 3.12374428099
3722 1 28.975320646 30.8616856377 3.13357335863
3726 1 28.2587475389 30.0772937658 0.912386819057
4878 2 32.7314416626 28.3633188416 1.84739153957
5047 1 32.7203232497 30.8431535748 1.84441714986
3742 1 31.2258320287 30.0096347186 3.58807853227
4873 1 34.2302360586 29.1835959978 0.0966216359523
5068 1 34.9523457341 29.9873531798 2.30984136659
4876 1 37.211671981 29.1730443311 2.76623591849
4882 1 36.4821609994 28.3585972164 0.537497297589
5051 1 36.3760803745 30.8314101091 0.561631266346
5070 1 38.5733219845 30.0900685606 0.919214292679
5067 1 37.2556609111 31.647918375 2.72028626582
4880 2 40.5668135781 29.3491490954 1.39178470323
4897 1 39.5257340224 28.3863933896 3.23260149226
5066 1 39.4847163341 30.8562398754 3.14419612905
5086 1 41.8616976314 30.5180334664 3.668465193
1013 1 3.844026532 31.6972807766 1.51889484145
5048 2 1.90893553684 33.5375873676 1.85970388638
1340 1 2.57282467253 35.2712921431 0.104844889915
1045 1 3.32347610576 32.7625498112 3.62330787764
1202 1 4.05059473986 34.1603092954 1.574684182
1016 1 6.1590531443 32.4990472204 1.12991697371
1185 1 6.24554383401 34.9911562772 1.1500054615
1025 1 5.52608645978 33.3755904546 3.32694846323
1015 1 7.70362921977 31.7032383359 2.89196498463
1204 1 7.74037867303 34.1839480113 2.91531102513
2355 1 10.7247156036 31.7546273716 0.290492034831
1009 1 8.44836298302 33.3551726733 0.71618121192
1018 1 9.93528734217 32.557905863 2.47313812709
1187 1 9.96419708071 35.0389351276 2.4795893961
2540 1 10.6976047187 34.2324774562 0.260130955077
2357 1 14.4755598771 31.7701238037 1.60256795361
2354 1 12.1478844661 33.4046728193 2.02159316134
2546 1 14.3520699459 34.224208236 1.61027988103
2358 2 17.9016648952 31.7499322722 2.96236608405
2527 1 18.1027701271 34.2876364588 3.41951028111
2688 1 16.9391084836 32.7932597453 1.19528060418
2356 1 15.8133257587 33.2941772766 3.29364331128
2529 1 16.4868040783 35.2378994139 1.54019321633
2673 1 18.8340839172 35.0073230084 1.21203204311
2362 1 19.6534712411 32.9587879149 2.15953458505
2682 2 22.6123703592 34.3095996213 2.16618979318
2531 1 21.1001580167 34.8825707579 0.540553166435
2532 1 20.6228597488 35.3403813326 2.87458953991
3723 1 26.7205198741 31.7427297046 2.68828949657
3700 1 26.8077814864 34.1782485404 2.68442053152
3701 1 24.4328833494 32.6019291986 2.30097849949
3706 1 26.0218380525 33.3953065118 0.452663443617
3892 1 24.6826881334 35.0902775723 2.26672432363
3697 1 23.8633831288 34.3368535509 0.0833961754825
3725 1 30.4888968245 31.6580130033 1.38105645273
3704 2 30.5486933092 34.0730492181 1.45678660949
3705 1 28.2659872936 32.5527352918 0.921384008377
3721 1 28.9945873972 33.3122485873 3.15435687924
3894 1 28.3651139769 34.986875694 0.876388630646
5052 1 34.1759946698 31.6605659204 0.0835080662592
5046 1 32.7638953598 33.303820287 1.80864261824
3910 1 31.2676029626 34.9597010906 3.57336939484
3720 1 31.2501140644 32.4772201195 3.57667733782
5041 1 34.2224254795 34.1442879134 0.023486255912
5045 1 34.9901105703 32.4685364977 2.26294175139
5236 1 34.9860863231 34.9514155352 2.2204929497
5044 1 37.2332959262 34.1032886555 2.69007817851
5050 1 36.4718060646 33.3120906565 0.480637454719
5049 1 38.7104284271 32.5487082341 0.971231843101
5238 1 38.6762248443 34.9936199566 0.913164164352
5069 1 40.959968274 31.7323740908 1.22337221222
1010 1 42.461518655 33.1461415582 2.49469708323
5065 1 39.6497548012 33.2437257556 3.18404432641
5237 2 40.714693924 34.2260468991 1.43836514228
1196 1 42.649493211 34.1940912329 0.210591762096
5254 1 41.6880996296 35.2740628836 3.46512937146
1178 1 1.29298294313 35.8120734508 2.07575699158
1193 1 3.09175839957 37.7172160339 3.36069755022
20 1 0.458413980898 38.0785165053 2.0528645668
1339 1 2.41482384279 37.8792210735 0.394121332445
1181 1 4.05168980174 36.6076322648 1.58391855252
1201 1 5.52895017395 35.829333688 3.3563276632
26 1 4.27784186083 39.064976973 1.73503315454
1184 1 6.27830662475 37.4366134124 1.19343356224
1183 1 7.76249906472 36.6463265603 2.98840548473
1180 1 5.57322488713 38.2168199179 3.47606587589
28 1 7.80712696526 39.087394201 3.01154116217
1188 1 8.45516652583 35.8516515035 0.746084839398
1177 1 8.49962203629 38.3095792649 0.749400399075
1186 1 9.98881299003 37.4992636045 2.48124317605
2523 1 10.674749397 36.6854039068 0.292946749795
1364 1 10.7171573144 39.1418375007 0.32268101075
1370 2 14.4546769148 39.3469278846 1.82693964635
2539 1 12.1970232385 35.9016640901 2.00277954002
2522 1 12.230918434 38.3524301234 2.10865050043
2525 1 14.427432498 36.6378445639 1.51342129555
1351 2 18.1979784476 38.6564038938 2.22629693082
1372 1 18.1953830736 36.575734682 2.96126754119
2524 1 16.0956533489 37.9062089496 2.36442360825
2528 1 17.4513278532 37.2175760125 0.386402598998
1355 1 20.3968569216 39.5570785206 2.90424792417
2521 1 19.9939317256 37.2616641282 1.30570406228
3702 1 22.4390322583 36.7563538339 1.50191647589
3870 1 22.9176516677 38.60559788 3.13107972826
3865 1 23.7259108748 38.9876240133 0.593848667747
3875 1 26.1837942852 35.7939691762 0.463922964837
3869 1 24.741374048 37.4521855093 2.17934919829
3874 1 26.0965337846 38.3336148865 0.389517237652
3891 1 26.8824991409 36.6486613353 2.65311753452
3885 1 26.9004043497 39.1149420497 2.65941545051
3890 1 29.0374461268 35.7705700355 3.11266179726
3872 1 30.5406297573 39.0606617573 1.30721085199
3873 1 28.3129648547 37.4551166679 0.846196179941
3889 1 29.0480494654 38.2352953791 3.09345838063
3893 1 30.5173746593 36.5976084579 1.31610753188
5215 1 32.7383266721 35.786240516 1.76954040284
5214 1 32.751786073 38.2553658925 1.7578222825
3888 1 31.2645069498 37.4191417734 3.51687417313
5220 1 34.2465049656 36.6123906538 0.00118609966483
5213 1 34.9657326175 37.4325276932 2.20234134752
5219 1 36.4847230916 35.7873311648 0.433019635397
5212 1 37.1349160947 39.0706698569 2.65621261674
5218 1 36.5175570709 38.2434989574 0.44609903107
5235 1 37.1909909783 36.5987878625 2.63423830261
5217 1 38.7867393281 37.4234961868 0.910602538568
5234 1 39.4063635082 35.7966420597 3.11417029832
4196 1 40.7979354337 39.0752708445 1.55541907243
5233 1 39.3304559285 38.2264004882 3.15801118695
1179 1 41.1546580204 36.6578705658 1.43577316544
186 1 3.31227056907 3.12094965851 3.9282930255
37 1 2.17183154841 1.00078309243 5.92798969407
13 1 2.39256542182 3.38218078048 6.02618188404
31 1 0.109001122645 3.8378335735 7.23384391451
18 1 3.3393787946 0.529690422148 3.87665974428
16 1 4.63295515711 1.89392385271 5.58715632787
23 1 6.95904994794 2.76865474186 5.15701338202
24 1 6.9829712146 0.305192323339 5.18527022907
15 1 6.14930416909 3.53796053478 7.36522967533
42 1 6.10702537691 1.09792879028 7.34947904962
22 1 8.39925592576 1.92954971427 6.92233946232
27 1 9.21045222449 1.22106739106 4.71627636288
1375 1 10.6483388833 2.8540566591 6.49861999015
1376 1 10.6859912386 0.379707839797 6.47987862804
6 1 9.19563792675 3.66947766557 4.70543464486
1358 1 11.4904339128 2.07639687376 4.30587063431
1361 1 13.7844439078 2.99369852655 3.89046099862
1362 1 13.6539095261 0.515809443295 3.94406818803
1360 1 15.272069801 2.15165032277 5.58020966049
1381 1 12.9791907961 1.29917461719 6.10809573265
1357 1 12.9140279143 3.74689666678 6.1368764982
1367 1 17.8584236572 3.2501615902 4.66929580723
1368 2 17.4008932597 0.728823116332 5.20814158764
1359 2 16.7814043846 3.39100850844 6.70694018971
1389 1 19.2882254151 0.279238128562 6.96026239695
1371 1 19.6392639747 1.497217235 4.78564772108
2706 1 21.2122110959 2.09609140897 6.96159452849
2726 2 19.9249553216 3.56532446095 5.63871451941
1354 1 21.832929658 2.38777064284 4.45364463202
2526 1 21.3982302686 0.0370665963273 5.0652535409
2695 1 25.3812407991 1.43091872394 4.35727350834
2730 1 26.1684091384 2.28548783146 6.57551589895
2704 1 25.332882412 3.83437808472 4.42696839212
2731 1 23.7534795504 2.90297879295 6.03060547319
2711 2 23.5289070058 0.510279712724 5.14517503201
2733 1 27.5031394807 0.398144114227 4.89351198173
2708 1 27.5771310135 2.91486640148 4.79000202057
2732 1 29.7805029334 2.00694447913 5.26361572572
2729 1 28.2814403864 1.20961612839 7.037924966
2728 1 28.2735979764 3.71151679145 7.02362996247
4055 1 33.4659693668 1.942249507 3.92600255976
4048 1 34.1995655748 2.76440862308 6.13398349872
4050 1 32.0021856125 1.13832710922 5.69937373557
4075 1 34.2337947171 0.306450776542 6.18612607508
4049 1 31.9779092785 3.61886089318 5.69426846406
4052 1 37.8678560376 2.73867810909 4.91716035231
4053 1 35.6647124121 3.59453380467 4.3803978381
4054 1 35.6811607929 1.13164169753 4.38796942708
4074 1 36.4224114048 1.90997636177 6.621551545
4077 1 37.8781672649 0.288547448572 4.84774814385
4073 1 38.6722360982 1.10329936718 7.02528229183
4072 1 38.7323298226 3.58631394597 7.04299606403
32 1 42.5392451148 2.04112057162 5.44481984649
4076 1 40.1103665403 1.92930284564 5.24862572154
182 1 0.863266867619 6.6404980243 4.42211084938
206 1 0.595802069972 4.24310481184 4.72296401892
392 1 2.95791440403 5.49263251562 5.02627647725
224 1 1.87730221312 5.78961123404 7.09989579367
211 1 4.82937893202 4.30228602398 5.52842439158
184 1 4.66732196749 7.06296839574 5.61056497406
192 1 6.88854464418 5.27761822449 5.05467115316
191 2 7.05777452218 7.69541976029 5.23498472705
210 1 6.18860510952 6.01437256251 7.31270716688
190 1 8.43250463988 6.91074947252 6.95117661105
195 1 9.15865030909 6.13385086656 4.7224931258
213 1 8.3829107191 4.44032916534 6.89025008136
1526 1 11.4007515654 7.009652504 4.35479610778
1544 1 10.6607065688 5.34429745108 6.49030079231
1543 1 10.6663623175 7.80600625297 6.5415107264
1550 1 11.4816842428 4.5356823816 4.31322066343
1530 1 13.7223151403 5.44470560509 3.86597067892
1549 1 12.9845018119 6.23529490105 6.07817920028
1555 1 15.0698978015 4.61730435466 5.62455042813
1528 1 15.4824824677 7.10324810161 5.71805470826
1536 1 17.1756831338 5.50634255565 5.28715980436
1535 1 18.1555691665 7.72410558537 4.15155161966
1539 1 18.0578743357 6.93848757248 7.05829785149