ITEM: TIMESTEP
22000
ITEM: NUMBER OF ATOMS
5376
ITEM: BOX BOUNDS pp pp pp
0.0 42.7297273569
0.0 39.5600404449
0.0 37.0050293879
ITEM: ATOMS id type x y z
5216 1 1.09509982206 0.748321089098 1.54428018031
193 2 1.71225643972 3.11496673392 1.78122007394
5 1 3.87847213703 1.83193749379 1.63875869509
14 1 0.901816026422 1.85914483278 3.47151220884
8 1 6.1582306452 2.79119962043 1.28213896049
9 1 6.13505389244 0.313101281667 1.2456077404
25 1 5.4645444037 1.22253745924 3.43171236017
4 1 5.40877880402 3.69325808747 3.43265303944
7 1 7.7114800448 2.06096579609 3.03308456637
10 1 10.009122406 2.88937245903 2.60555491039
11 1 9.976996679 0.411904863007 2.61480063212
12 1 8.46826254328 1.20349593405 0.858907379855
1347 1 10.8037955219 2.05094341337 0.436564769196
1 1 8.48399415299 3.67436521737 0.879538349943
1349 1 14.5801459623 2.02047251425 1.72533292843
1363 1 12.2685787947 1.22245555432 2.18740846397
1346 1 12.3339908761 3.71453835931 2.1631742718
1508 1 13.1434422053 0.412595665636 0.0176328151973
1352 1 16.8450539369 2.86657115465 1.43384113531
1353 1 16.7910217655 0.342929354147 1.43034469417
1356 1 19.3612492236 1.34284550864 1.86922516734
1369 2 15.7373221446 1.04478655537 3.48015561002
1513 2 19.0106836984 3.67745906514 1.25116254649
2710 1 21.7513046932 1.00365379096 1.7669308576
2863 1 20.6605560778 2.95516204513 3.05866732234
1490 1 21.3057153247 3.22571355132 0.391552093735
2689 1 22.6320389743 3.92646766168 2.3320849685
2694 2 24.7252177039 2.88068717702 2.2108768904
2699 1 25.932729569 1.25523418343 0.462637053764
2698 1 26.0866522708 3.73640173485 0.469734244344
3868 1 26.8193669115 2.00164652079 2.65595406794
2709 1 24.3951000985 0.435484082915 2.22403548342
2693 1 23.5126366888 2.15924203055 0.135703683313
2697 1 28.3177299886 2.81663837289 0.881467901092
2714 1 29.0554856658 1.14082316189 3.04544850971
2717 1 30.5727439846 1.94653592623 1.27399378421
2718 1 28.2359306546 0.35160330847 0.846850900694
2713 1 29.0908538579 3.62049877319 3.07497903378
4039 1 32.8436059738 1.09284705486 1.672194177
4038 1 32.8585696074 3.56664773796 1.69006537824
2734 1 31.3358953915 0.290856461088 3.43740984404
2712 1 31.3493752865 2.76488454414 3.46844917004
4060 1 35.1095055297 0.233092679861 2.09109198858
4037 1 35.1267100176 2.70781728487 2.09363728967
4043 1 36.6371723201 1.03021002856 0.316626077819
4059 1 37.3760793493 1.83606891124 2.53250294606
4042 1 36.655084571 3.49963152712 0.307098062183
4041 1 38.911339768 2.5703331568 0.74167392729
4062 1 38.90809348 0.128697973605 0.775702835896
4058 1 39.5568613175 0.860546342183 3.00301977887
4057 1 39.5394150333 3.34918785991 2.9555300404
4196 1 41.3100304962 1.4759135163 1.45740497418
4061 2 41.0999271205 3.65060864974 1.02988694457
187 2 0.989496246932 6.25862189816 0.917463404721
185 1 2.51477916114 6.9450116768 2.75260435222
331 1 2.56984388978 7.55748538261 0.0145524026653
194 1 3.89039009004 4.37299229755 1.67808997403
173 2 4.27388654516 6.83889270582 1.43566227584
177 1 6.16051525828 5.29461492353 1.31746513606
172 1 5.27118098756 6.20298282145 3.50261704553
176 1 6.27767514053 7.79603956038 1.27903442276
196 1 7.66658390404 4.53461742735 3.02854641575
175 1 7.70047932716 6.98168456917 3.05121507637
179 1 9.97927109351 5.35915649197 2.59519456218
180 1 8.44021304667 6.16058431235 0.859316537569
1532 1 10.7836133345 4.52375463284 0.429219925631
1515 1 10.7324175136 6.99368851245 0.431695734977
178 1 9.97532980702 7.83401480215 2.61886129292
1517 2 14.3807630824 7.13237344528 1.70341136045
1531 1 12.2722419591 6.16498109714 2.19330546455
1538 1 14.657543492 4.49323165024 1.71071365844
1676 1 13.0728642247 5.36981812171 0.00363926437105
1519 1 18.5714056713 4.36100513698 3.59349790535
1521 1 17.4113262771 5.29311449903 0.934441027695
1839 1 18.2733506989 6.84356289276 3.19242573759
1537 2 16.4898296813 5.16947949943 2.90964940181
1524 1 20.1105929178 5.53615636374 1.63567904826
2868 1 22.3474705175 6.30123943511 2.09087513979
2692 1 26.8397092166 4.48158136944 2.71059040632
2867 1 26.0930251081 6.22855834244 0.568704954155
2883 1 26.8322314279 7.01498269125 2.72865498711
2884 1 24.666162775 5.41225961779 2.30343931048
2857 1 23.806823907 7.27823195066 0.458190519475
2861 1 24.4534961328 7.72700378908 2.84845629196
2715 1 23.8600313494 4.58679347319 0.256118987184
2696 1 30.5912595979 4.42807322371 1.29975350144
2882 1 29.0915301344 6.11693786566 3.10268098993
2885 1 30.5711197932 6.91240870913 1.30901470909
2886 1 28.3293792166 5.29975611537 0.922470542574
2865 1 28.3022441425 7.78984253358 0.913160997542
4207 1 32.8366059102 6.0414829394 1.7068831046
2880 1 31.3267042778 7.73390146983 3.5093203899
2902 1 31.3500603068 5.24679536686 3.49404902986
4205 1 35.0021489144 7.65461069393 2.12336885114
4228 1 35.1068226506 5.17479310721 2.10852856688
4036 1 37.3976602278 4.31906911385 2.50535775596
4211 1 36.6253765855 5.96027905179 0.311889758557
4227 1 37.2156957929 6.75660353126 2.51548540699
4209 1 38.6081390891 7.61557793953 0.730934919792
4230 1 38.9478514656 5.08003590768 0.73053606117
4226 1 39.530765601 5.90344153746 3.01064745756
4397 2 40.6267086266 6.83606215371 1.09611998483
4246 2 42.1092675497 5.44143935401 3.51643556981
182 1 41.6755142705 7.61458914753 3.41757569759
4229 1 0.834910877685 8.54449937147 1.55055843731
355 1 3.7230621117 9.13815567932 1.91814842988
374 1 0.286580487697 10.811558572 1.80942915878
499 1 2.21155363473 10.1455733482 0.277262812061
500 2 3.1206419185 10.4036658235 3.68675266069
341 1 3.99058174825 11.7259009916 1.66156997056
361 2 5.73616314057 8.7039352168 3.47672965896
345 1 6.10984894266 10.2394210632 1.31560353429
353 1 5.40218218797 11.0920632175 3.5239894228
364 1 7.77063440979 9.50695711732 3.06054947744
169 1 8.47718469784 8.64413941477 0.840118959102
347 1 9.99418926756 10.3106028617 2.64300991564
348 1 8.40765948932 11.0870986338 0.89375637721
1700 1 10.7224210758 9.46671210362 0.43507074044
1514 1 12.2518612323 8.67508749383 2.19801815991
1699 1 12.2218702425 11.1630314181 2.20597078575
1706 1 14.4791678744 9.59336232224 1.74648810735
1844 1 12.9567171999 10.2978318799 0.00537286417272
1520 1 17.7897148046 8.15779833217 1.19905605237
1689 1 16.7702079316 10.3297801502 1.132969594
1705 1 16.4369549068 11.1566114125 3.37196297843
1708 1 18.3179164937 9.56610251041 2.98650535661
1516 1 16.0228444251 8.69215702122 3.34566699656
1848 1 19.2513869125 10.0585901582 0.69080053839
1842 1 20.1878987743 7.93453070267 2.30500920705
2862 2 22.3883411897 8.58506980205 2.21743284023
1692 1 20.8354334106 10.4047023802 2.62200576244
3031 1 22.9427957463 10.9778975019 1.45441623952
2010 1 21.6774298957 9.29010217934 0.169314377622
1876 1 21.0725507816 11.8660536525 0.419031997304
2860 1 26.8543462783 9.47495438013 2.72198933873
2866 1 26.0064275412 8.68304307014 0.605233470852
3035 1 25.7894259013 11.2209128187 0.323018135401
3052 2 24.8955209983 10.5968113235 2.42076502064
2864 1 30.521764 9.40598471943 1.29655835652
2881 1 29.099168994 8.60248621803 3.10097791535
3054 1 28.2410613603 10.2680904993 0.872284060884
3050 1 28.9624480316 11.0600366893 3.08341404187
4206 1 32.7667826926 8.52658331693 1.71573085257
4375 1 32.7267329766 11.0082378852 1.72026821881
3070 1 31.2406597954 10.2292749893 3.50759704155
4396 1 34.9674537576 10.1435630846 2.15540529732
4204 1 37.197703884 9.24847982804 2.56334563414
4210 1 36.4451969668 8.46111217586 0.341416717992
4379 1 36.46617269 10.9332772537 0.3960535715
4395 1 37.2169444508 11.7323291785 2.61442344046
4398 1 38.709701429 10.081334114 0.820707521761
4225 1 39.4051885557 8.36150966573 2.98431653749
4394 1 39.438065774 10.8135104317 3.06287301643
4208 1 40.9758710287 9.16539118216 1.31983198484
4224 1 41.728679581 9.95098087325 3.49775569799
542 1 40.8416878555 11.6294401611 1.31533681234
170 2 1.79215014297 12.4505373222 1.74030003434
523 2 0.0980131435826 15.6209062743 2.00379924416
530 1 3.76571799625 14.2260277376 1.74220975138
4582 1 1.24901245999 14.0188482332 3.30986298861
343 1 7.64002554217 11.9439766115 3.09952922757
340 1 5.41651168345 13.5381117953 3.52106832282
344 1 6.13861829612 12.7140112157 1.31930751859
513 1 6.12203760751 15.1672303931 1.30104146381
532 1 7.63069467171 14.4046085675 3.07924773148
1683 1 10.6694173561 11.9275123609 0.453671141015
337 1 8.39211721743 13.5502311878 0.877914881158
346 1 9.91206363905 12.7498524886 2.64687174795
515 1 9.87949603842 15.2243719201 2.60821170373
1868 1 10.6167727947 14.3856522221 0.406084445782
1685 1 14.5059517109 11.9889227871 1.74987374297
1682 1 12.1266237963 13.6234929364 2.14118922547
1874 1 14.4061532486 14.4913879532 1.66715310645
1688 1 18.8403167023 12.0614442218 1.70798630291
1684 1 15.8104572744 13.6400255969 3.40315086039
1857 1 16.7672942221 15.3120124173 1.27012276851
1833 1 16.7323097531 12.8996712779 1.25678369009
1855 1 18.1976241884 14.1641215573 3.10605975005
1849 1 19.5384206077 14.2807684227 0.901331989143
1681 1 20.601127998 15.17059178 3.15025225233
3030 1 20.8245341897 12.7637153294 3.0397130625
2016 1 22.1918862307 13.8505601298 1.56845661512
3194 1 21.43316774 15.8004688716 0.175152503855
3051 1 26.7311988733 11.9626097504 2.68795973311
3028 1 26.7601362653 14.3960587381 2.70084589129
3029 1 24.5741961837 13.007532214 2.28259543684
3034 1 25.9641452432 13.6982524621 0.390398573785
3220 1 24.6890721416 15.4181826245 2.46982933485
3025 1 23.8442883762 15.1524798855 0.330282351502
3175 2 23.5576306045 12.7733302709 0.229426878518
3053 1 30.4699981145 11.8695720329 1.30648465398
3032 1 30.4999475946 14.3374861551 1.36030099732
3033 1 28.1579256983 12.6987808593 0.923022863118
3222 1 28.2107681809 15.1511047214 0.873024569583
3049 1 29.005521284 13.5368264526 3.10798186662
3048 1 31.2666616666 12.7061739734 3.46817829299
4374 1 32.7389646229 13.4617950973 1.69290801474
3238 1 31.2917345134 15.1666981076 3.52544273477
4373 1 34.9866063468 12.6136194776 2.16819116473
4564 1 34.9918503353 15.0905342122 2.14451444321
4372 1 37.2027596117 14.1939619509 2.57860305339
4378 1 36.471788105 13.4020739081 0.378001442068
4566 1 38.7669172373 15.0052818899 0.803214913848
4377 1 38.698478728 12.5566036176 0.824652508746
339 1 40.9260839257 14.0604663696 1.38120805685
4393 1 39.3809609261 13.3023441707 3.06713983275
4392 1 41.5862481639 12.4227459944 3.50944751656
349 1 41.5080764601 14.8477432735 3.59569096218
4562 1 39.3012396147 15.7723323621 3.02863255029
4703 1 2.10731556255 16.5618724538 2.12119055975
4694 1 0.158891773064 18.0252644841 1.90035598578
698 1 3.76572292873 19.0754817563 1.54309550589
667 2 1.68871131923 18.0860850704 0.348183734361
509 2 4.27071534459 16.7232846582 1.9710612852
508 1 5.33928343875 18.4874321399 3.43137145691
512 1 6.17521167772 17.6692422759 1.22308987921
700 1 7.58062811279 19.3142641332 2.98005802529
529 1 5.55315180685 15.9936255441 3.60561927012
511 1 7.70806355176 16.8681342248 3.03575078118
516 1 8.35497304477 16.0277398264 0.83292780199
505 1 8.3749623037 18.50344853 0.800266449014
514 1 9.88560715081 17.7077874113 2.58188575011
1851 1 10.5992082829 16.8726603426 0.381613018331
2036 1 10.585383673 19.3568914327 0.373809137184
1850 1 12.0862256243 18.5662822738 2.14244239542
1853 1 14.3578537829 16.9470691528 1.70327144637
1867 1 12.1005683103 16.0981463224 2.14122130601
2042 1 14.308923468 19.3979975165 1.70381113457
1852 1 15.8582648933 18.5846808966 3.40935422474
1873 1 15.8611440429 16.1163151899 3.37971969432
1856 1 16.6461255817 17.7701101324 1.23845064799
2044 1 18.1629815189 16.8726361236 3.03952839715
2023 1 18.0535045902 19.4563821908 2.91978130427
2184 2 18.3501454701 19.1565820303 0.183470762457
3037 1 22.5535051567 16.3214100623 2.17215488794
3198 2 22.5322610961 18.7433790314 2.21496924197
3026 2 20.0661033979 16.7374719024 1.65022134327
1858 1 20.3672003084 19.1118336646 1.25821524227
3209 1 20.9545583527 17.540549691 3.67190033335
3204 1 23.7381729259 17.8192715683 0.290114621818
3203 1 25.9905607029 16.2026706864 0.435253808361
3196 2 26.5855411777 19.3666194086 3.08207820678
3197 1 24.6267155571 17.7774088473 2.52835287532
3202 1 26.1807897818 18.6682714931 0.659542554167
3219 1 26.8264049135 16.9010935392 2.69205753025
3218 1 29.0303931665 16.0103206149 3.08534286465
3200 1 30.5422331555 19.2278486933 1.30293104975
3201 1 28.3285418821 17.5149482869 0.75363442938
3217 1 28.952657356 18.4818495084 3.04840217424
3221 1 30.5251770788 16.7602033956 1.30764796344
4543 1 32.7479505134 15.926781466 1.73923513534
4542 1 32.7249088635 18.3969024554 1.74822486321
3216 1 31.2092255505 17.6407483486 3.51153212073
4541 1 34.9263270342 17.5493687175 2.19115626404
4547 1 36.4929899914 15.8553869374 0.381585959987
4540 1 37.0932895816 19.0661064364 2.60341472924
4546 1 36.4341048427 18.3103253669 0.401749103441
4563 1 37.1250084137 16.6442419851 2.59964908465
4545 1 38.6588511529 17.4462268092 0.871244788474
4544 1 40.8149486841 19.1162207916 1.4125871007
4565 1 40.8748150012 16.6317833241 1.33993458511
4561 1 39.3389383654 18.2530770253 3.07832921238
4560 1 41.5205890366 17.374731174 3.64768778401
4750 2 0.241102194083 20.4190974041 2.04094113159
691 1 1.79911609764 23.5458895218 1.89751408839
690 2 3.18767800871 20.1341052303 3.63183917426
689 1 3.22363297655 22.7275072328 3.65088583134
677 1 3.82997159391 21.589267896 1.57647522041
860 1 0.835326709391 21.7102698386 0.344789577556
680 1 6.15833865338 22.5738350853 1.19966631683
681 1 6.06822770217 20.0939648569 1.19056141932
697 1 5.35179434076 20.9341752352 3.37579537412
676 1 5.43837796311 23.4114430435 3.35588505802
679 1 7.60780230698 21.787264096 2.98811161681
682 1 9.85512685932 22.652485499 2.56753998096
683 1 9.83217406043 20.1743390323 2.57858692525
684 1 8.34606300854 20.9716712438 0.788060335935
673 1 8.38816044263 23.4569492733 0.782262680956
2019 1 10.5898100758 21.8386088279 0.360399995757
2021 1 14.2782898636 21.8778769143 1.76406598047
2035 1 12.0577879665 21.03287062 2.15305610346
2018 1 12.0984057261 23.5091729999 2.132212222
2025 1 16.4530368397 20.2580891256 1.26839656894
2024 1 16.5138695726 22.7609561145 1.35677437464
2041 1 15.8800427498 21.0754479323 3.48984685058
1854 1 18.0771571497 22.0032665557 3.08862677557
2020 1 15.765320402 23.5535675887 3.50971854205
2212 1 18.5752741454 21.2244792594 0.847081529717
2017 1 18.7178333057 23.6308669029 0.754428636802
3367 1 22.2803934649 21.0402721926 2.43859555315
3373 1 20.704537261 22.0483283303 0.981903000329
3377 2 19.9537469182 20.8709606126 2.7242250306
3363 2 22.3912187881 23.5907009395 1.7307667294
2027 1 22.3751018115 19.9847803852 0.136046504646
3388 1 24.4488836121 20.1541872196 2.13735482484
3365 1 24.3205087216 22.6018262383 2.50145233122
3371 2 25.6455159742 21.4494630855 0.75721277446
3387 1 26.6141191555 21.9330962493 2.80260538415
3362 1 23.4416235513 22.1876491002 0.159171601721
3370 1 25.7366388615 23.7219099338 0.485352132169
3390 2 28.4951720232 19.8885991857 0.718365833039
3369 1 28.0308125539 22.4754980754 0.803036372542
3389 1 30.3674169937 21.7105282128 1.2750646081
3386 1 28.8394035868 20.8972372462 2.99605519063
3385 1 28.9146115121 23.3540670531 2.99725521097
4711 1 32.6597999031 20.8977681362 1.75500759088
4710 1 32.704469658 23.3583360999 1.73542056529
3384 1 31.2000574634 22.549735682 3.4509625084
3406 1 31.1559044143 20.1065106424 3.51217560987
4732 1 34.8985597385 20.0472726626 2.19514467478
4709 1 34.9358613403 22.5276919081 2.2453763876
4716 1 34.1777946125 21.6974660585 0.013629710524
4715 1 36.3869292386 20.7995435337 0.394808773097
4714 1 36.4235403346 23.2651621716 0.480755567936
4731 2 37.1032722858 21.4435640864 2.51035804808
4734 1 38.5818547937 19.9091036114 0.87985524595
4713 1 38.6705905894 22.4040911938 0.98881375446
703 1 41.5207259667 20.0080247484 3.61661476467
4733 1 39.3024252308 20.7364262314 2.98607626681
4729 1 39.7389856779 23.2280000477 3.26308034005
675 1 40.9274364307 21.5390527598 1.11081920369
4918 1 42.3711078826 22.7570580986 2.44267574047
878 1 0.0551928674214 25.2012427621 1.97373535987
686 1 1.9908919827 26.347380836 2.01614306439
1004 1 2.30363618785 25.0367036073 0.000216624499995
845 1 4.15989333992 26.6667238759 1.62017119425
866 1 4.01112237259 24.249386193 1.60184994954
849 1 6.21597348319 25.0961701075 1.19334441026
865 1 5.4870297183 25.9140488198 3.4194867767
848 1 6.24252458687 27.6004819441 1.28869699788
868 1 7.66371264518 24.2835483565 2.98404617369
847 1 7.69723313194 26.7767588311 3.02003155563
851 1 9.90657646896 25.1318562669 2.57083737432
852 1 8.44427800356 25.9425743451 0.795775048587
2204 1 10.6105641265 24.3194034201 0.350606037561
2187 1 10.6653740198 26.7873580133 0.36111494916
850 1 9.93715691875 27.6112392211 2.58381113625
2189 1 14.4101458812 26.818291797 1.73167843423
2203 1 12.1509749177 25.9805068249 2.13733396527
2210 1 14.3448310594 24.350580812 1.68354070535
2022 1 17.893981292 24.4402678078 2.92008003274
2193 1 16.5544488557 25.2674702427 1.19922470531
2209 1 15.9722883001 26.0368855996 3.48658284522
2352 1 18.849810773 25.946281031 0.771100749715
2195 1 18.2675911668 26.9102473176 3.04321183081
3541 1 20.3135370328 24.5923888876 2.36549669476
3534 1 22.4215440829 25.9724615409 1.67495305888
2211 2 20.4766255667 26.9508097075 1.9594876054
3364 1 26.715784162 24.3408095093 2.6650671801
3539 1 25.9453455417 26.0945258046 0.3669691312
3555 1 26.7378040188 26.7991780861 2.56818575561
3556 1 24.5340602965 25.1184196825 2.10277753095
3533 1 24.4226512179 27.6746065782 2.14794459701
3368 1 30.4169414162 24.172421009 1.26311659849
3554 1 28.9730111278 25.8609319903 2.99997261319
3557 1 30.4690132932 26.670959485 1.2630214547
3558 1 28.1448860754 24.9984963272 0.797766981178
3537 1 28.2322608752 27.5376565627 0.798528666263
4879 1 32.6972044517 25.8313064279 1.71009572063
3552 1 31.2415724743 27.4948460214 3.45392441008
3574 1 31.2318207321 25.0087299084 3.4552509534
4900 2 34.9061471666 25.0362199308 2.09139820688
4877 1 34.9488317943 27.4699540911 2.12397473908
4708 1 37.177337094 23.9888044037 2.72310209164
4883 1 36.4308850789 25.7361786151 0.403132450451
4899 1 37.1347074423 26.4823744537 2.56551355849
4881 1 38.666357807 27.366249477 0.857355237112
4902 1 38.5697438363 24.8796053014 0.985633361655
4712 1 40.700163881 24.1656606089 1.40024778734
4901 1 40.8016726337 26.5333430804 1.46064023573
4898 1 39.3432612256 25.6751976457 3.2177186129
859 1 41.5251705154 27.3454381221 3.61557841652
1027 1 0.201701627853 27.8292525535 1.72614298301
5207 2 2.00646463149 30.8256527754 2.32174941081
1034 1 3.57628167812 28.9362827945 1.72722803245
1046 1 1.24284306071 29.0110351957 3.53800340132
1172 1 2.38662572259 30.1365462138 0.0941255742104
844 1 5.39599827242 28.4624570775 3.45790063267
1017 1 6.10689921407 30.0249704173 1.29729088926
1033 2 5.69752599664 30.9933974023 3.46736883448
1036 1 7.67281554889 29.2585318208 3.03627849589
1013 1 4.06458214565 31.6261136478 1.79976852207
841 1 8.44806718409 28.4109443536 0.830995660927
1019 1 9.91996736865 30.0902318065 2.62054070216
1020 1 8.42510016304 30.8662350665 0.848977758889
2372 1 10.6657651737 29.2623153751 0.442712551938
2186 1 12.1859886596 28.4470653141 2.16729920516
2371 1 12.1806415213 30.9146267131 2.16942222555
2378 1 14.4378895848 29.2843249646 1.73935139275
2192 1 16.6606606976 27.71946136 1.36105772624
2188 1 15.958402913 28.4964815289 3.5457468288
2377 1 15.9849889173 30.9818910052 3.48028886456
2360 1 16.6542373708 30.1738259208 1.28877055205
2361 1 18.1068099542 29.6426512852 3.1220861039
2191 1 19.0097977995 28.5731176834 1.08911372677
2194 1 18.8496175157 30.9438294087 0.807527896443
2363 1 20.4314533717 30.4573813372 2.58093381176
3531 1 21.9569334033 28.845740953 1.46203039708
2682 1 22.5854394841 31.3204333747 2.25268862302
2342 1 21.4770491763 30.9960348248 0.0569328987465
2379 1 20.1357226245 28.5148130964 3.68410128766
3532 1 26.7148862335 29.2463956411 2.61082570987
3538 1 26.0161885488 28.5019083672 0.373718186922
3707 1 26.0040571954 30.9894939489 0.37136993541
3724 1 24.524187222 30.0810112987 2.15349753401
3536 1 30.4844149305 29.1525726618 1.26712217336
3553 1 28.9819295677 28.3624213804 3.00646639024
3722 1 28.9523834544 30.8328678877 3.0408499715
3726 1 28.2344311332 30.0354037396 0.847826788502
3725 2 30.4898099706 31.6243332708 1.27567653777
4878 1 32.7243878684 28.31148359 1.69909311091
5047 1 32.7641998849 30.7759542871 1.69088093056
3742 1 31.2332572171 29.9798526551 3.44669997384
5068 1 35.0052261586 29.9337817318 2.12380829629
4876 1 37.1933949054 28.9913287097 2.55532280783
4882 1 36.4715402072 28.2471991166 0.373720607401
5051 1 36.5204568495 30.7421968276 0.355735052595
5070 1 38.7160649601 29.8513680878 0.781838905117
5067 2 37.2903814804 31.4162592294 2.64628026629
1010 1 42.6930675318 30.4434051082 1.25645048594
4880 1 40.8237324574 28.9537373089 1.28678191034
4897 1 39.3597301653 28.1259463554 3.06318899648
5066 1 39.4957671228 30.595454519 2.91296220868
5086 1 41.6587762048 29.6886139488 3.45539797254
1202 1 3.79282581639 34.1076303556 1.80410618054
5048 2 1.35206454978 33.976166311 2.98161943166
1178 1 0.698268008397 35.5366534455 1.41275560727
1016 1 6.25592776115 32.5212048257 1.3595821321
1185 1 6.11951656509 34.9514446913 1.35508657126
1025 1 5.30003796338 33.3602757903 3.52200691554
1204 1 7.65766681604 34.2097090371 3.08221741088
1015 1 7.7743362812 31.7481906102 3.06533496014
2355 1 10.6652113899 31.7082527587 0.420390839266
1009 1 8.47847364727 33.3552908888 0.89928163253
1018 1 9.97816518016 32.5653345334 2.6308115259
1187 1 9.95745783573 35.0335897271 2.64197178895
2540 1 10.7300572547 34.1869967434 0.453743842207
2357 1 14.4233387734 31.7417479292 1.72480420997
2354 1 12.2293955228 33.3942473945 2.20455963932
2546 1 14.508881017 34.2331864105 1.7310848473
2684 1 12.9580265152 35.0195383067 0.00355000423192
2358 1 18.2024024578 32.3158838602 2.80592171125
2688 1 16.5867347853 32.6112133197 1.11552582174
2356 1 15.9084686056 33.3265850127 3.42420348667
2529 1 17.0631578452 35.0142917838 1.70283078328
2673 1 18.7790097607 33.7617106409 0.78739481607
2362 2 20.3575773929 32.4642506953 1.63696523514
2531 1 22.0542039732 33.6807303918 0.988046519127
2532 1 19.7359747035 34.6882068311 2.70223097702
3702 2 21.8635883925 35.2133816595 2.90678670784
3723 1 26.656804127 31.7014560412 2.62719259917
3700 1 26.699819401 34.1854058593 2.63273318973
3701 1 24.4785435317 32.7036528081 2.1708304616
3706 1 26.0132592821 33.4515827368 0.443315341592
3892 1 24.3942015015 35.1035167422 2.14427203548
3709 1 23.7387340814 32.0516710285 0.0602067985206
3704 1 30.5046613668 34.0905017175 1.26593414951
3705 1 28.2203204145 32.4871886201 0.835430428959
3721 1 28.9784967703 33.2930368535 3.03515419909
3894 1 28.2372158244 34.9516421764 0.846959240362
5046 1 32.7840184382 33.2306577892 1.69018483062
3910 1 31.3035690565 34.8982947721 3.44199221013
3720 1 31.269855518 32.4438457727 3.45660783516
5045 1 35.0516777451 32.3831992446 2.10933727089
5236 1 35.050764846 34.8380678651 2.09389883675
5044 1 37.271019687 33.9474782103 2.50986884283
5050 2 36.45885489 33.2682158492 0.246296658539
5238 1 38.7465761377 34.7354116031 0.731822927849
5049 1 38.7118474954 32.2764075042 0.714632772301
5065 1 39.4425155697 33.0620738435 2.90597953175
5237 1 40.9331135055 33.7772569046 1.1111465581
5254 1 41.8342374458 34.5963542998 3.15178096278
5234 1 39.5816511809 35.5084992188 2.91955774446
5064 2 41.523413358 32.1132630807 2.97498173555
20 1 0.877493564264 37.9438808303 1.53963779476
26 1 3.66658621862 38.9556897005 1.69212301007
1181 1 3.57785520322 36.5208934944 1.81439268596
1207 1 1.31774966085 38.9382859329 3.66719182153
1190 1 1.36222114951 36.4616456423 3.49909754792
1201 1 5.3544639344 35.8350066104 3.48945075408
1184 1 6.15358890214 37.4076252171 1.32492245717
1180 1 5.42251597838 38.3123969069 3.40884420055
28 1 7.69188881296 39.1445912008 3.03154417699
1183 1 7.67143397517 36.6690560771 3.06914994721
1188 1 8.44516849228 35.8229869746 0.899718385384
1177 1 8.4674922709 38.3030208631 0.852701512794
1186 1 9.96373047943 37.5021721168 2.62997163734
2523 1 10.7346914942 36.6615317215 0.451603718027
1364 1 10.7987199423 39.1386084631 0.446646227056
1370 1 14.5627892017 39.0845537438 1.80255275955
2539 1 12.2491543572 35.855939656 2.20894869904
2522 1 12.2519289491 38.3295194655 2.19799202391
2525 1 14.5419313556 36.6597291265 1.73043818206
2683 1 13.0048834491 37.4800268821 0.016367080768
1351 2 18.5062835677 38.9096008571 2.85680097474
1372 1 18.3329565338 36.6597706779 3.02189550822
2528 1 16.8127491912 37.4568820292 1.34481246318
2545 1 15.8499053351 35.9073897465 3.53189260745
2524 1 16.2171911178 38.2706068824 3.63895873598
2716 1 19.0616551457 38.4743428913 0.707365671873
2521 1 19.4521064976 36.1576126785 0.686644957731
2530 1 20.5863218176 37.5320204038 3.01174251129
3865 2 22.4783761214 38.2912211105 1.83089104503
3875 1 25.9788782989 35.9183212313 0.447291053993
3869 1 24.5917543994 37.5632900921 2.19732318502
3874 1 25.9664453266 38.3779258323 0.396795870026
3891 1 26.7822546666 36.6461228538 2.62092732201
3885 1 26.721097898 39.1151680661 2.62576038749
3890 1 29.0317780007 35.7572001741 3.03026736612
3872 1 30.525278457 39.0346826894 1.25104889548
3873 1 28.2390487104 37.4397198603 0.826312961941
3889 1 29.0220383737 38.2371519699 3.02337003066
3893 1 30.5109989908 36.5554429123 1.25028268824
5215 1 32.7847343769 35.6988940863 1.67104346466
5214 1 32.806237883 38.1773069302 1.66999707427
3888 1 31.3141583777 37.3770246713 3.43531835744
5213 1 35.0764985365 37.3111665892 2.09610361053
5219 1 36.5256012634 35.67093687 0.329293556385
5212 1 37.3553571049 38.9036678655 2.52671808335
5218 1 36.5699641956 38.1174794615 0.330642250909
5235 1 37.3347304541 36.4170332932 2.52374315715
5217 1 38.8192067168 37.2073761356 0.728498470178
4056 1 41.8005634639 39.5349942341 3.36644654604
4078 1 41.2028778261 38.7026888063 1.17869663307
5233 1 39.5821719923 37.9547734384 2.906413093
1179 1 41.0716272997 36.2258828172 1.11540554192
5232 1 41.8407950159 37.100764944 3.16613119407
18 1 3.33013580456 0.391908310155 3.79356100331
186 1 3.21999951144 2.79587549566 3.76181472633
37 2 2.00603296383 1.38920120747 5.3311564313
13 1 2.70611135943 3.55629179908 6.08519057175
1208 1 0.891843894646 2.43448810147 7.31097077246
16 1 4.57875098276 1.94136624836 5.69150011511
23 1 6.85728393021 2.86925968351 5.23297215988
24 1 6.92151542523 0.416314589025 5.24071463952
22 1 8.35080245334 2.05152709264 6.99119993885
27 1 9.18312354438 1.24487632497 4.80056033954
1375 1 10.5927298419 2.89407180688 6.51326141132
1376 1 10.652943119 0.419809044181 6.57471038689
6 1 9.16765364165 3.72184085569 4.76728212984
1358 1 11.4734975978 2.06146876611 4.36228642022
1361 1 13.7554281871 2.84730887728 3.92971393425
1362 1 13.6930503597 0.34377527427 4.00703015336
1360 1 15.1056348124 2.11403726177 5.78982357543
1381 1 12.8971803935 1.22839763207 6.13309117477
1357 1 12.8770658662 3.69746054119 6.08890431212
1540 2 18.6215793333 2.16654606213 4.20723460904
1348 1 16.1988453902 3.21494897424 3.8521542377
1368 1 18.2838463238 0.855506849635 6.15640746004
1359 1 17.379626245 3.1455284448 6.04300973875
1354 1 22.9428317982 1.83787534284 3.80967153003
1355 1 20.4117486758 0.511113098068 4.28686620487
1367 1 20.0996033519 3.13649246439 5.61225016582
1371 1 21.7495019232 1.20581319899 6.20075163793
2726 1 22.2504286462 3.38757084624 7.36515418129
2691 1 22.2384235309 3.69619336143 4.90769786629
2711 1 23.8365683968 0.126135191885 6.09459685549
2731 2 23.9892075781 2.64270431272 6.06217764878
2695 1 25.2667721053 1.18561021242 4.38164889307
2730 1 26.0841385194 1.93994721828 6.6039435923
2704 1 25.0968788546 3.72200624884 4.3626980418
2733 1 27.5298833863 0.333895296784 4.82996553341
2708 1 27.5428044259 2.81474232212 4.82884169679
2732 1 29.8241402571 1.95907020932 5.23351604595
2729 1 28.3326654442 1.14076729781 7.0139173032
2728 1 28.328155172 3.61487789101 7.02660114713
4055 1 33.6115769254 1.9104646525 3.87380835023
4048 1 34.3653294174 2.72246023793 6.09164481414
4050 1 32.0991234016 1.1059578328 5.63790464616
4075 1 34.3523764261 0.24926235953 6.07825056683
4049 1 32.1149981047 3.57648724984 5.67143535845
4052 1 38.0653362792 2.65795551616 4.778066656
4053 1 35.8556066746 3.52680843046 4.30623832938
4054 1 35.8574651557 1.04050760686 4.30424905707
4074 1 36.589452721 1.85899264473 6.5304776995
4077 1 38.0734845403 0.136656732245 4.74980944103
4073 1 38.7651592555 0.979420959978 6.96218827855
4072 1 39.0040915577 3.47063435431 6.93546323442
17 2 41.5692902231 2.41428462355 3.86599683006
32 1 42.5623414028 0.686143125026 5.55225953065
4076 1 40.1546028698 1.57421119067 5.24371895216
4095 2 41.2346575182 2.11398165024 7.25745349612
392 2 3.08412072046 5.01383893007 3.94077338934
206 1 1.05649818762 6.65257555914 4.64371560201
224 1 2.65623639811 6.10208708224 6.23368104807
200 1 0.289343092362 6.46977085783 7.02325922675
31 2 0.746405990517 4.50799269415 6.10587603607
211 1 4.76553147151 4.39960617217 5.66569891375
184 2 4.96709102753 6.73254607996 5.84668748654
192 1 6.94550051769 5.33544924362 5.19193348733
191 1 7.02772450768 7.78665300831 5.21947327136
190 1 8.50595402681 7.01043169986 6.9926218289
195 1 9.21893534296 6.19294749739 4.78488282662
213 1 8.3930729305 4.53074742756 6.98272992959
1526 1 11.5144462803 7.02242312569 4.35167359898
1544 1 10.7001924971 5.35998357582 6.52704963966
1543 1 10.7431108002 7.84644812745 6.54945891397
1550 1 11.5036884152 4.5522605085 4.32021740953
1530 1 13.9193073325 5.35676091865 3.86486986152
1549 1 13.0021571392 6.15396036524 6.06444002602
1555 2 15.0937360394 4.52036332716 5.68248477987
1528 1 15.3032924804 7.02835810401 5.7803717593
1529 1 13.7936175997 7.84861750709 3.95633353832
1536 1 17.1721042551 5.51257932635 5.18928337861
1350 1 18.8761197501 4.73895053399 6.89092416462
1539 1 17.5787908717 6.86376415015 7.24685988876
1522 1 19.362450072 6.57177508803 5.33385350691
1523 1 20.7812420761 5.37013812717 3.86039444963
2873 1 23.2145505886 5.68977870648 4.21438691669
2874 1 21.3045612649 5.45300751938 6.28390567832
2879 1 21.7732200618 7.46993536455 4.35710250319
2899 1 23.7830783337 5.24843922971 6.43436182337