ITEM: TIMESTEP
10000
ITEM: NUMBER OF ATOMS
5376
ITEM: BOX BOUNDS pp pp pp
0.0 42.7297273569
0.0 39.5600404449
0.0 37.0050293879
ITEM: ATOMS id type x y z
163 1 2.01534478228 2.73604955245 1.03752726039
5216 1 1.97325998328 0.329583892116 1.84394362832
14 1 1.19525547948 2.08236006237 3.67973986103
186 1 3.22440854645 3.20454493291 3.5852448408
5 1 4.18589700232 1.92391934806 1.63828966125
8 1 6.37957349306 2.79175288839 1.09825296108
9 1 6.47513871794 0.3537034337 1.21335119628
25 1 5.62457093848 1.11298687677 3.39897427215
4 1 5.63573437959 3.43643529735 3.32501311601
7 1 7.84091948229 2.00876239818 2.96051562656
10 1 10.0760868568 2.86425579206 2.55437062836
11 1 10.0921318661 0.395313617171 2.52704799071
12 1 8.62940807724 1.23057097133 0.734817527337
1347 1 10.8541161105 2.07572289642 0.33581500071
1 1 8.58918558519 3.68914333303 0.757539633311
1349 1 14.5801400786 2.10468320543 1.76846160343
1363 1 12.3273785788 1.25455728371 2.11714817147
1346 1 12.3455628881 3.706573259 2.16999204037
1352 1 16.753241452 2.76555294803 1.51678624028
1353 1 16.7189537895 0.488638827061 1.26586188852
1369 1 16.1986730421 0.843491719715 3.60469071093
1540 1 18.4218376274 1.65252488142 3.19158256663
1356 1 18.9947160507 0.83908604694 0.679418360008
1519 2 18.4952493649 3.77718522384 2.60868780209
1348 1 16.2124380241 3.75778947906 3.66721222269
2710 1 22.6523226332 1.31019954363 1.76848408754
2863 1 20.53852256 2.47336931081 1.88369593937
2689 2 22.4535933144 3.74251748917 1.83268238887
1355 1 20.7096150623 0.552502645403 3.07096136078
2694 1 24.5563206481 2.8692708055 2.2449056958
2699 1 26.0493067049 1.2756607446 0.47234893804
2698 1 26.0004364317 3.70961364392 0.433934477894
3868 1 26.7987971749 2.03493968614 2.67310806164
2709 2 24.8326959332 0.307047077665 2.29202431113
2697 1 28.2478895477 2.84255956088 0.892668953254
2714 1 28.9923367749 1.16016977632 3.13772419583
2717 1 30.4873450814 1.98236288173 1.35787136679
2718 1 28.281923471 0.360672232313 0.905226500911
2713 1 29.0225999576 3.66153816117 3.0927276579
4039 1 32.7346227691 1.14354182497 1.7951262447
4038 1 32.7578511427 3.62303737926 1.79649627582
2734 1 31.2383172725 0.327359376563 3.56649174742
2712 1 31.2555049015 2.81247540085 3.55280797421
4044 1 34.2643088364 1.95329249586 0.0502354583042
4060 1 34.9765069709 0.319222227061 2.21252086059
4037 1 35.0136335438 2.79580495323 2.23459858421
4043 1 36.5232896229 1.13977797545 0.475022479516
4059 1 37.2728049072 1.98107057887 2.63734011115
4042 1 36.6019843885 3.58443820795 0.509275462257
4062 1 38.6954474451 0.288770200963 0.894389452051
4041 1 39.0931341885 2.74017641894 0.864103863827
38 1 42.576030629 1.15507382663 1.82928351725
4058 1 39.4971387097 1.14681375384 3.06751883231
4057 2 39.3702380918 3.56581566254 3.14844021299
4056 1 41.5536053846 2.88706755349 3.30721061371
19 1 42.0844611009 2.6357951728 0.26087089769
187 1 0.605732401544 6.43077221551 1.65373715661
193 1 2.49203813223 5.33920122833 2.42089802047
185 1 2.90004374214 7.63431663562 3.2621433346
17 1 0.536800193368 3.99339492424 2.19987132523
331 1 2.43842853654 7.65663387739 0.333408177479
173 1 4.2445142249 6.76724550045 1.45371216381
194 1 4.21803573522 4.2254303038 1.40797817113
177 1 6.31523532193 5.28266750013 1.16479665556
172 1 5.00608749976 5.63120895232 3.37182225962
176 1 6.28130432506 7.73994890122 1.07013622505
175 1 7.59605250539 6.86830589045 2.97362725406
196 1 7.73865040312 4.47115898121 2.96598881923
179 1 9.97209094421 5.31771774104 2.58258609592
180 1 8.54927192899 6.15406007122 0.773650697032
1532 1 10.8309351606 4.53089340871 0.385445058157
1515 1 10.8230928979 7.0009647624 0.402351696256
178 1 9.89762610795 7.77801461216 2.59686070575
1517 2 14.2409321682 7.02477525268 1.90378061083
1531 1 12.1784951935 6.14971894006 2.19182010438
1538 1 14.6793288821 4.56796740681 1.82234399838
1676 1 13.0694523327 5.37851776107 0.0206568137861
1537 1 15.822551354 6.15022228723 3.58894157385
1521 1 17.2141368837 5.20984112484 1.38128414674
1839 1 18.555270444 5.81353927586 3.47386629435
1520 2 17.341282968 7.38724752739 2.55680027607
1524 1 20.0684682728 4.86844649396 1.38626332601
2879 1 20.8954005576 6.59580138247 3.50211505093
2868 1 22.2431288777 6.04742098742 1.59704628875
1842 1 19.5135132586 7.23321644252 1.55063877164
2692 1 26.7654221255 4.50827763367 2.64614753033
2867 1 26.0377404179 6.1779902952 0.425234559959
2883 1 26.7459968533 6.98095705251 2.63916932139
2884 1 24.5481749027 5.41104075618 2.23723633337
2861 1 24.447033002 7.82514342157 2.10426246299
2715 1 23.9002022198 4.78792665381 0.0252061027335
2696 1 30.5079014006 4.46609749473 1.34044979929
2882 1 29.0110759065 6.13956829829 3.09366745146
2885 1 30.5044144845 6.94598340097 1.35102795045
2886 1 28.2549313345 5.31792593279 0.883541675749
2865 1 28.2332677733 7.80848952354 0.906832038045
4207 1 32.7644918572 6.09882477539 1.80569041397
2880 1 31.2762055408 7.75756040762 3.56688028261
2902 1 31.259525219 5.28983438274 3.55213407841
4212 1 34.2702343972 6.90342753768 0.0570491831919
4033 1 34.2972588274 4.42078797513 0.0619078931087
4228 1 35.0240930276 5.26366044279 2.25956625694
4205 1 35.0127218857 7.73388210194 2.25845099476
4036 1 37.2684286782 4.44306608487 2.6890592316
4211 1 36.5317091806 6.07450026113 0.510815141443
4227 1 37.2708863882 6.89469999299 2.72729777684
4209 1 38.7441399996 7.72344099827 0.97781955175
4230 1 38.779935928 5.24106073698 0.94121714784
4061 1 40.9653793401 4.44484749242 1.39280319986
4226 1 39.5174590764 6.08371266533 3.19111675653
4397 1 40.9635400956 6.86872563369 1.45089503039
4246 2 41.76395551 5.58540509554 3.40380622628
4229 1 1.0342190406 8.72333933019 1.95156283616
500 1 2.02346485637 10.595375426 3.18430583351
315 1 2.42802307846 10.3140226854 0.366797388061
361 1 5.42123255497 8.00184739792 3.4722034329
355 1 3.97558362624 9.18609853763 1.75520893345
345 1 6.18700905954 10.1948237239 1.16573571593
353 2 5.66365472969 10.189184505 3.31490557326
364 1 7.698862422 9.31169184346 3.00370445014
343 1 7.50263873345 11.8285925306 2.95656810932
341 1 4.05795116175 11.5861722141 2.23116662606
169 1 8.47920636451 8.62365319972 0.818261119687
347 1 9.85739656942 10.2634042183 2.56346352982
348 1 8.37288779241 11.0947171675 0.757393456397
1700 1 10.7145360191 9.45950945929 0.3747760287
1514 1 12.1600882359 8.63593814013 2.15174035237
1699 1 12.1041644941 11.102131074 2.08515316335
1706 1 14.3798588011 9.49691251924 1.58327812047
1689 2 16.4381342955 10.6890305278 1.12617948998
1705 1 15.8161488069 11.1831128332 3.35304446251
1708 1 17.8692531054 9.50609172445 2.37412671422
1516 1 15.72719921 8.75892943672 3.41030845332
1838 1 18.9878919735 10.6533327575 0.400778603367
2862 2 21.7019284771 8.2959771281 1.9994986803
3031 2 22.2584837969 11.4894795379 1.70974505801
1692 2 19.643670375 10.6252223043 3.01488204512
2860 1 26.870454746 9.41881746419 2.71076738348
2866 1 25.9657366731 8.69297273218 0.474149852326
3035 1 25.9307672476 11.1497583677 0.491458848566
3052 2 24.8763254546 10.2234537692 2.29315479243
3036 1 23.3635263011 9.63283859618 0.42556842594
2864 1 30.5005751457 9.42010548387 1.35972507596
2881 1 29.045258246 8.59882751328 3.12918797092
3054 1 28.2588157678 10.2851863427 0.903579584483
3050 1 28.9567525888 11.0841222237 3.13209893746
4206 1 32.7559881158 8.57406452639 1.80542794116
4375 1 32.7236822151 11.0510622687 1.80536573936
3070 1 31.2339247788 10.2397197295 3.56946651359
4201 1 34.2485911246 9.38537066935 0.0447084645652
4380 1 34.2156567381 11.8665551162 0.0395582082298
4396 1 34.9744589357 10.2134645746 2.24192232358
4204 1 37.1939894606 9.37132087093 2.70201265856
4210 1 36.5032499267 8.55500264123 0.49865787785
4379 1 36.4652602076 11.0382301176 0.460718538887
4398 1 38.6891060125 10.203255451 0.934716525783
4395 1 37.1334716945 11.8478309903 2.66506490867
2 1 42.5599251403 10.1295705731 0.109168751533
4225 1 39.3718648064 8.50131250493 3.21836222258
4394 2 39.2428453792 11.0109892148 3.15830701877
4208 1 40.8135230781 9.25160225204 1.44875482039
374 2 42.3501693212 10.4121533695 2.55106214116
4224 1 41.7832287814 8.1639254298 3.47438944633
542 1 40.8576316787 11.7913433713 1.46066738782
170 2 0.287182798235 13.2542501909 1.71195480915
4582 1 1.02154219231 14.4685603934 3.42631699708
499 2 3.18543099781 12.6493436081 0.443540663864
530 1 3.95774596364 14.2861714563 1.73499675031
340 2 5.58475861327 13.4113587986 3.32691648573
344 1 5.97585443246 12.7901112503 0.981854542865
513 1 6.06726269351 15.2232989973 1.09493573917
532 1 7.60453518294 14.3516074756 2.8922806839
1683 1 10.6176335644 11.9227537584 0.313390405485
337 1 8.30800726607 13.5383701232 0.697629327069
346 1 9.75400113856 12.7137988867 2.4963128645
515 1 9.81790738301 15.2023627581 2.47044399735
1868 1 10.5688751803 14.393274382 0.273201117608
1685 1 14.3189304932 11.9927635485 1.61897239469
1682 1 12.0070783873 13.5773451101 2.04886751496
1874 1 14.2442066144 14.4360543338 1.62321081107
1688 1 17.9568267602 11.9974429835 2.81907128096
1684 1 15.7730965567 13.6933526162 3.34836574748
1876 2 18.884677672 13.0904740276 0.978601924469
1857 1 16.4044854246 15.3793708948 1.26435791564
1833 1 16.546966312 13.0075332993 1.1710145141
1855 1 18.2607354225 14.3661347859 3.12186730973
1849 1 18.6862344256 15.4738875362 0.894678538622
3030 1 20.54129435 13.2109736783 2.83173071431
2016 1 21.5267862323 13.2130661815 0.590660979228
3037 2 22.3705421926 14.8854591343 2.03146560923
1681 1 20.5726750416 15.6072000406 3.22607164826
3051 1 26.6839418056 11.9412593372 2.71396301716
3028 1 26.7606801407 14.3970581264 2.67507770851
3029 1 24.3065002031 12.830927496 2.2274557093
3034 1 25.9188165075 13.5661146905 0.500044428162
3220 1 24.6014579011 15.3208906586 2.26623609293
3025 1 23.717857647 14.5325154023 0.0545263049508
3053 1 30.4669491243 11.8946191593 1.37477733723
3032 1 30.5114968372 14.362538231 1.3758691772
3033 1 28.1981943852 12.7388241844 0.94702960506
3222 1 28.32324359 15.1905897943 0.938799281488
3049 1 28.9952418596 13.5604713006 3.14495737308
4374 1 32.7292054517 13.5289337141 1.80667202399
4369 1 34.2303840105 14.3487557755 0.056316438245
3048 1 31.2335912305 12.7151544158 3.57368340615
3238 1 31.2758926029 15.2020573685 3.56950412389
4373 1 34.9477949866 12.6901049163 2.23033779374
4564 1 34.9993264668 15.1703877414 2.25195342708
4372 1 37.236145257 14.3374323589 2.71812452292
4378 1 36.4725848859 13.5207162162 0.50175244665
4377 1 38.6830367876 12.676637488 0.968868165731
4566 1 38.7194757327 15.1599076673 0.952844080748
339 1 40.8218348282 14.1812924071 1.45084848063
4393 1 39.4325017208 13.4506445922 3.20322843798
4392 1 41.7037545835 12.6728132462 3.6057818353
524 1 42.5554931696 14.9620645312 0.128179370223
523 2 0.987411967234 16.4642699952 1.72681853383
4703 1 1.39042437208 18.6614059839 1.77270494439
698 1 3.81708578006 19.32576761 1.53021202802
509 1 3.60053217218 16.799379012 1.69819609406
521 2 3.16357982184 18.3740482177 3.67301748834
529 1 5.36406483823 15.9007793025 3.32175479273
508 1 5.34971651591 18.4687867504 3.29145055638
512 1 5.99169641238 17.6509015591 1.11470918682
511 1 7.54142005196 16.8355673059 2.88494597723
700 1 7.57339524846 19.3237857425 2.88042567761
516 1 8.33215833205 16.0245523878 0.698000459209
505 1 8.30407051042 18.498174309 0.691117635527
514 1 9.80707448597 17.6802833656 2.46262333505
1851 1 10.6030068933 16.8753286119 0.271660382174
2036 1 10.585284498 19.3447674393 0.272890733507
1850 1 12.0731262098 18.5270865321 2.02994127319
1853 1 14.2960977378 16.9152990674 1.60987899726
1867 1 12.0591098418 16.0596364252 2.04196670928
2042 1 14.3561205711 19.3586862975 1.60410128636
1852 1 16.014199513 18.5883017602 3.31622876315
1873 1 15.7616571895 16.1405935 3.41622665523
1856 1 16.527134165 17.664254721 1.15001757411
2044 1 18.0554112864 16.7481275786 2.94127609829
2023 1 18.4872974683 18.7903912534 1.83029979756
3198 2 22.6727386556 18.6922517315 2.0415932498
3026 2 20.1721518804 17.0024067108 1.32106519314
3203 1 26.2136856757 16.0040681211 0.496146575818
3196 1 26.7784910943 19.365938654 2.69751431849
3197 1 24.7425453716 17.8101162411 2.33525156423
3202 1 26.1007508601 18.552127167 0.465108515475
3219 1 26.882625607 16.8727204082 2.75451576233
3204 2 24.2677525884 16.8934759316 0.185453874325
3218 1 29.0778699624 16.0502412927 3.15017601566
3200 1 30.5357127783 19.3035965231 1.3192393265
3201 1 28.2904915861 17.6788349755 0.923890844173
3217 1 29.0823414486 18.5482588158 3.15607373604
3221 1 30.5331160389 16.8489025431 1.36833896449
4543 1 32.7644484271 16.0132151505 1.80987877752
4542 1 32.7908727257 18.4825771909 1.80111604759
4548 1 34.2644149467 16.829055813 0.0556543483405
3216 1 31.2953957908 17.6775755375 3.56793004754
4537 1 34.3158302807 19.2998303906 0.0436511181305
4541 1 35.0283081135 17.6490464294 2.24915966332
4547 1 36.5048869897 16.0013670408 0.506071246147
4540 1 37.3502120195 19.2815329791 2.69977879426
4546 1 36.5891455473 18.4660984396 0.495712470859
4563 1 37.2594966939 16.8244622625 2.69676334949
4562 1 39.4068781998 15.9524005701 3.17901434415
4545 1 38.8864526533 17.6332531568 0.946348780387
4544 1 41.1582282738 19.204316771 1.43359651673
4565 1 41.0621248631 16.6619741025 1.52657283825
4561 1 39.5754251747 18.3838088497 3.18308312269
4560 1 41.9725359005 17.587212952 3.55071914999
4750 1 1.7357301961 21.0654993379 1.74416599671
691 1 1.25788300373 23.5297346978 1.9865460894
689 1 3.23768764254 22.8995713938 3.57444945466
860 2 0.57902736429 22.1063650335 0.114229467049
690 1 3.21690852583 20.5538174785 3.6949362857
677 1 4.04081840826 21.7668444438 1.49121545734
680 1 6.2059172929 22.664203407 1.10372231913
681 1 6.10390316825 20.1410644625 1.09977825362
697 1 5.48630598931 21.0670653091 3.27179221585
676 1 5.45151107249 23.564641153 3.32456285482
679 1 7.67347809728 21.8373184795 2.88149699555
682 1 9.89008901254 22.6557604042 2.45867650322
683 1 9.81741852709 20.1609604886 2.45867525651
684 1 8.3709252635 20.9898381481 0.682281283604
673 1 8.44270142635 23.4865875202 0.69769351147
2019 1 10.6371467752 21.8320129113 0.260199632091
2021 1 14.285826838 21.849751328 1.65944520714
2035 1 12.0591690709 21.000298554 2.04161339399
2018 1 12.1109905371 23.4901273456 2.02989111373
2025 1 16.5402685994 20.2640689575 1.20513999531
2024 1 16.5445989641 22.6784349052 1.37919373125
2041 1 15.7270810715 20.9853408041 3.38003606056
1854 1 18.1045063518 21.5034638041 3.06230830716
2020 1 15.5859037989 23.4424020736 3.50243295143
2212 1 18.8603787034 21.0419856265 0.79971346498
2017 1 18.8645522394 23.484976498 0.997733462818
2027 1 21.701653454 20.3633159538 0.717371927654
1858 2 19.9771641573 20.1198195703 2.69828417111
3367 2 22.7656926275 22.032657931 2.06691980543
2043 1 20.6429237071 22.1955502592 2.68172902802
3373 2 20.5644359153 22.2467569062 0.0546423400848
3388 1 24.4383459135 20.2640706434 2.25630673812
3365 1 24.768302152 22.7909663952 2.23462502172
3371 1 26.0344157007 20.9877745458 0.552948676731
3387 1 26.8687114687 21.8112751295 2.69823587237
3370 1 26.1817999078 23.4416510932 0.515489639419
3390 1 28.2977032681 20.1651601621 0.935851602556
3369 1 28.3888388146 22.6343166844 0.969552548456
3389 1 30.5962823808 21.7809996093 1.36789093392
3386 1 29.0977574193 20.9764521494 3.14219321977
3385 1 29.0711906358 23.4478409731 3.15660825679
4711 1 32.8518733655 20.9536882955 1.76860521114
4710 1 32.782257417 23.4071059611 1.8151855949
3384 1 31.2911350609 22.5804316266 3.58502513301
3406 2 31.3498713268 20.1257128442 3.36326758587
4716 1 34.3313607468 21.7678309698 0.0066035073727
4709 1 35.0022271008 22.5612377567 2.25109175159
4732 1 35.0730558636 20.0986377329 2.25225585565
4715 1 36.6020554047 20.9280677246 0.460894996404
4714 1 36.4991944096 23.3856471047 0.441352899618
4731 1 37.215533203 21.7319584953 2.70221437919
4713 1 38.7047286217 22.5583139826 0.868467549099
4734 1 38.8606646877 20.0757188326 0.909001725274
4733 1 39.4140917878 20.8443063107 3.1870938168
4729 1 39.4212321665 23.3002162149 3.09336622545
675 2 40.6716185144 21.6831850258 1.50626742396
4918 1 41.7286513945 22.5305085233 3.50903321281
878 1 0.597627212236 25.6988040741 1.87544659219
858 1 3.04884515892 25.359234249 3.50600088709
866 1 3.86985920911 24.1722833301 1.53289578529
1003 1 2.21513337341 27.6545879923 0.168749401295
845 2 3.96928763498 26.5728059905 1.52493808003
849 1 6.17346181248 25.1155677956 1.16713330541
865 1 5.39401713004 25.9979850782 3.33190058261
848 1 6.28027097221 27.5644921271 1.19405901403
868 1 7.6932799793 24.3286075625 2.89719432734
847 1 7.70561699289 26.784861825 2.91974064201
851 1 9.95295115859 25.1494835751 2.46148170139
852 1 8.45437774774 25.9718098311 0.717948235698
2204 1 10.6776101583 24.3275208312 0.256769371241
2187 1 10.7187825206 26.8212612749 0.262649110804
850 1 9.96348491459 27.6099459652 2.45045965487
2189 1 14.5584689643 26.8042979068 1.59384507163
2203 1 12.2273043659 25.9870810087 2.02047289051
2210 1 14.3161385107 24.3240350269 1.59509310631
2022 2 17.6042076653 23.9915446699 3.0217685615
2193 1 16.5361885291 25.2017724964 1.23141788374
2209 1 15.9875318412 25.989399497 3.40921466766
2352 2 18.6034228948 25.7249505616 0.484281135258
2195 1 18.7873978946 25.8437460723 2.7591718723
2192 1 17.1345903703 27.6486720942 1.35387715953
3541 2 20.7693077511 24.3825845451 2.5007041562
3366 2 22.958694988 26.4648933898 2.70384780258
3534 1 20.9408044162 26.3772427339 1.27940891275
3363 1 22.9650161148 24.1785144744 3.64957566107
3540 1 23.6418420007 26.7966332492 0.167354098716
3364 1 26.8448797583 24.3095989852 2.68148105883
3539 1 26.0678818292 25.9664999223 0.433648839235
3555 1 26.8070276812 26.7581465165 2.69671688517
3556 1 24.6728666832 25.1579767518 2.11787366311
3368 1 30.56125423 24.2585654604 1.39246517024
3554 1 29.046248846 25.9148432387 3.15773077489
3557 1 30.555785002 26.7369490407 1.38510091973
3558 1 28.3214204028 25.124024746 0.958980131845
3537 1 28.3284205239 27.5767915787 0.936215196744
4879 1 32.7683296528 25.8500482726 1.81738844869
3552 1 31.2529865219 27.5189419268 3.6052002818
3574 1 31.2782654594 25.0477098 3.59607611531
4884 1 34.2773642033 26.7009524392 0.0867660604413
4705 1 34.2581310537 24.2316473204 0.0155794784679
4877 1 35.0202756047 27.4871162961 2.25983522668
4900 1 34.9994206566 25.0257174746 2.24132358518
4708 1 37.2357062576 24.1901860555 2.65818361413
4883 1 36.5211906258 25.8385727137 0.467115637675
4899 1 37.2477170045 26.6523551528 2.67349778845
4881 1 38.7818594416 27.4495403831 0.924902673415
4902 1 38.793912314 24.9934036617 0.905291372423
4712 1 41.0380866645 24.0939640337 1.50961647682
4901 1 40.9947422499 26.5084123257 1.4346426047
4898 1 39.4788351811 25.7665601475 3.15314642021
674 1 41.7651707609 24.9628316402 3.61586601099
859 1 41.6367680417 27.4049769754 3.64726722738
1027 1 0.457123262031 28.0226142209 2.02585877744
1046 1 1.96342640314 29.6533767602 2.39414108024
5207 2 0.131481113825 30.4381077796 1.46484526064
1034 2 3.34800899833 29.6531541892 0.53661890491
844 2 5.63070946068 28.472495597 3.35491853938
1017 1 6.13401104007 30.0468135606 1.201052387
1033 1 5.46963762527 30.9452022321 3.38560611352
1036 1 7.75168688578 29.2610522557 2.87794446095
841 1 8.48890409304 28.4421392466 0.706623022836
1019 2 10.0174319326 30.0838377274 2.44942582095
1020 1 8.47308622217 30.8968018926 0.717238823463
2372 1 10.7538187946 29.2840449951 0.250335289862
2186 1 12.2284664492 28.4593410463 2.00215911474
2371 1 12.3245683845 30.9221967584 1.98490598099
2378 1 14.5391949096 29.2424560887 1.58852552004
2188 1 16.0121829256 28.3897517094 3.35894088518
2377 1 15.8925194696 30.7202341595 3.42643251127
2360 1 16.7586579955 30.1345013826 1.09978741582
2194 1 19.0142933514 31.1117746806 0.964694257303
2361 1 18.2443634715 29.680813212 2.87646254205
2191 1 19.4091024809 28.5738545335 0.327681565988
2211 2 19.686176822 27.9275396211 2.46830415479
2363 2 21.2811551016 31.1859482197 1.83086423791
3531 1 22.0839329454 28.556036035 1.54643702513
2379 1 20.9656406336 29.5944197702 3.45199358523
3533 1 24.6694051637 27.7304452185 2.2135460846
3532 1 26.8206808195 29.2604220746 2.70971228633
3538 1 26.1298967464 28.4625108899 0.539726119219
3707 1 26.1330814135 30.9069055753 0.504288861676
3724 1 24.5366464876 30.0884704407 2.211484671
3709 2 24.0179279944 31.5845764966 0.0892340012676
3529 1 23.8566910003 29.1818647324 0.010840940193
3536 1 30.5810294857 29.2000536868 1.37582058447
3553 1 29.0534666375 28.3920762064 3.13585676154
3722 1 29.0457697235 30.8605200148 3.14413967327
3726 1 28.3489406962 30.0514877821 0.949428915146
4878 2 32.8012062742 28.2611994605 1.92927951325
5047 1 32.7485894877 30.7895785174 1.80100523735
3742 1 31.2678783548 29.9948113076 3.573730484
4873 1 34.2430265151 29.1487453185 0.0798311276408
5052 1 34.2442741379 31.605011648 0.0594875827989
5068 1 34.9828715222 29.9499748204 2.26106615762
4876 1 37.2437609071 29.1247874099 2.70079176487
4882 1 36.5084949656 28.3090826634 0.493456667495
5051 1 36.4917312867 30.7654738715 0.526086236379
5070 1 38.7453388358 29.8983415616 0.934595345627
5067 1 37.2626486547 31.5878598493 2.71608553634
4880 1 40.9378667743 28.9537023936 1.376880545
4897 1 39.4802240806 28.25751328 3.14374047701
5066 2 39.5093352649 30.6952627641 3.05112361689
5086 1 41.8722991574 29.9452030139 3.39032902027
5069 1 41.0074656228 31.553855156 1.04508101216
5048 2 1.66660648052 33.185966723 1.18045754988
1045 1 2.9049164862 32.718547252 3.38285060701
1010 1 0.012712115758 32.6406120171 2.52928556744
1013 2 4.46792740845 32.0971551713 1.633582336
1202 1 3.97244991943 34.3109653911 1.61044378189
1016 1 6.48092966886 32.6044470811 1.09864792358
1185 1 6.28188788432 35.0744174169 1.09476092791
1025 1 5.48305703082 33.3881498179 3.31975878311
1015 1 7.79839713189 31.6865239813 2.91716908579
1204 1 7.7711113979 34.160184838 2.84565905342
2355 1 10.7817245608 31.7477686731 0.240112005985
1009 1 8.605506282 33.3794807906 0.662930710472
1018 1 10.019346216 32.5393508523 2.44235885932
1187 1 10.0760982271 35.0127028013 2.42420039215
2540 1 10.7868642251 34.2160740377 0.214556862249
2357 1 14.7102918157 31.7328220732 1.53436361323
2354 1 12.2301083974 33.3558809972 1.95602725279
2546 1 14.3989437147 34.0288360447 1.21485991119
2358 1 17.6560215056 32.0463267259 2.79686356989
2527 1 18.3365073759 34.323385662 3.23437622631
2688 1 17.0922456029 33.0121977395 0.846332513367
2356 1 15.7520159107 33.5101735367 3.05437435614
2529 1 16.7158383362 35.3780933417 1.21436476279
2673 1 18.9240136069 35.0559167137 0.926041897723
2362 1 19.9679742927 33.1809947079 1.8093396016
2682 2 22.4890159274 34.045530875 1.78526760865
2531 1 21.2895593514 34.8771944643 0.072159272903
2532 1 20.7486399829 35.3635412358 2.80171705888
3723 1 26.8082247383 31.7226780724 2.69639619765
3700 1 26.7634791994 34.1670027754 2.67708243744
3701 1 24.5408613844 32.565573041 2.26227734868
3706 1 26.0433296511 33.353128716 0.465644802795
3892 1 24.500184049 35.0032849247 2.19756668641
3725 1 30.5340738313 31.6473250961 1.36805922337
3704 2 30.5227192428 34.1247026359 1.37062772601
3705 1 28.3005104839 32.5257264443 0.927010411565
3721 1 29.0042511479 33.3169639457 3.14379850471
3894 1 28.290308068 34.9846596132 0.924367775268
5046 1 32.7656201495 33.2516525826 1.8066269076
3910 1 31.2604365036 34.9303745031 3.5747219421
3720 1 31.2519414361 32.4572837407 3.56444779143
5041 1 34.2606885321 34.0816596617 0.045750805142
5045 1 35.0051195024 32.415473978 2.24665318026
5236 1 35.0136538975 34.8977022442 2.22909280127
5044 1 37.2849117845 34.0371681525 2.70360388743
5050 1 36.5081926022 33.2405656775 0.503382120676
5049 1 38.7330309224 32.3507140559 0.973136543689
5238 1 38.6742390239 34.7954066119 0.909477772598
5065 1 39.6402108647 33.137055921 3.14137504578
5237 2 40.8342576246 33.9197027821 1.40312552832
5254 1 41.6820302802 35.1366553575 3.40930579436
1178 2 1.90292023723 36.1717729443 1.94289513817
1193 1 3.1974212326 37.6976393976 3.56559765117
20 1 0.608354512458 38.0466400823 2.10117867688
1339 1 2.42294079518 37.7981688923 0.147584344509
1181 1 4.10186891512 36.6896062997 1.54311664182
1201 1 5.53747234852 35.8111949126 3.27705970502
26 1 4.25801143693 39.0781537022 1.68139494419
1184 1 6.31916885509 37.5032824852 1.14252915272
1180 1 5.6051841331 38.248376134 3.41220035513
1183 1 7.81230563494 36.63510959 2.89964545919
28 1 7.86514332667 39.0940248226 2.97590858691
1188 1 8.53753847853 35.8522186816 0.694307657836
1177 1 8.56528226986 38.3185782803 0.719163384061
1186 1 10.0691555297 37.4727143403 2.47522302555
2523 1 10.7855276353 36.6935079951 0.278407564361
1364 1 10.804952035 39.1651769344 0.292504268195
1370 2 14.445145193 39.2294774902 1.69564896153
2539 1 12.3838592088 35.8622067135 1.94382990807
2522 1 12.2550700329 38.3600806473 2.08477550238
2525 2 14.8479706161 35.9374328179 2.21279979706
1351 1 18.5600487221 38.9658535363 2.56071087416
1372 1 18.4101597359 36.6784321691 2.92898832355
2524 1 16.2073360279 37.8975370172 2.39358975379
2528 1 17.9231027067 37.7339118288 0.758195279374
2716 1 21.1099917631 39.130758517 1.06211210015
2521 1 20.0937251397 37.0369144405 1.16021980016
3702 1 22.436807333 36.610303299 1.73995617009
3870 1 22.9765289067 38.984270531 3.38919759732
2530 1 20.8392112392 37.7393085808 3.38207714979
3865 1 23.438595075 38.5144035006 0.928508788467
3875 1 26.0538081254 35.7822802865 0.506107665269
3869 1 24.6636081144 37.3243517347 2.39167898393
3874 1 25.9917805686 38.2711226299 0.513106774848
3891 1 26.8343372911 36.6058815982 2.71858144289
3885 1 26.8639034909 39.0794428284 2.72155575207
3890 1 29.0279882951 35.7712120905 3.14664231479
3872 1 30.4974504966 39.0550599492 1.37047096253
3873 1 28.2654488117 37.4499153315 0.931900260531
3889 1 29.0204651746 38.2328715518 3.16536604465
3893 1 30.5084394559 36.5976374775 1.36398057944
5215 1 32.7539788443 35.7336042403 1.7927139109
5214 1 32.7435692284 38.2150458802 1.79043940523
3888 1 31.2464226508 37.3971266697 3.56429359813
5220 1 34.2712874601 36.5596319218 0.0273212845214
5209 1 34.2662687507 39.0307516103 0.033584801332
5213 1 34.9931070416 37.3887229137 2.21990133101
5219 1 36.5238700731 35.7340676365 0.473596792783
5212 1 37.183184846 39.0522801972 2.66242659351
5218 1 36.5401734657 38.2008344718 0.463069999564
5235 1 37.2287519581 36.5548068662 2.67925419035
5217 1 38.7851662073 37.3246931299 0.933746733694
5234 1 39.4507417631 35.7352519614 3.04708497015
4196 1 40.8184369308 39.2390263617 1.65542420993
5233 1 39.3195275417 38.2137866085 3.15330911595
1179 2 41.1491740057 37.0341630662 1.41177286109
5232 1 41.546165059 37.531162747 3.61760513783
165 1 42.4754532174 38.8718450261 0.0990791705713
37 1 2.29414513088 1.19436251684 5.86898558119
13 1 2.50584327091 3.50469418382 5.93772724392
18 1 3.38033424798 0.572513581616 3.81666609559
16 1 4.64126274045 2.02036738381 5.53258782392
23 1 6.96518647789 2.81515286024 5.1951952265
24 1 7.06168426286 0.347409380749 5.17436263511
15 1 6.13687409539 3.58428875189 7.38341122041
42 1 6.12485604033 1.12676994147 7.32098592981
22 1 8.44735413826 1.99360393854 6.93344198466
27 1 9.30727653289 1.19771441613 4.74004278023
1375 1 10.6913442033 2.85234142971 6.5123526588
1376 1 10.8264209587 0.393550363177 6.48821563555
6 1 9.21105048141 3.6659014152 4.74474621597
1358 1 11.5755030893 2.04301083936 4.33689797114
1361 1 13.869407348 2.89315885166 3.94106146862
1362 1 13.8044117944 0.437604743452 3.91036560702
1360 1 15.3424526941 1.96663865205 5.58439047517
1381 1 13.0931189361 1.23191520375 6.11104928705
1357 1 12.9588491491 3.6506142576 6.16506356124
1367 1 18.6496956902 3.82246810096 4.91909134837
1368 2 18.0454414755 1.54873455118 5.55124683763
1359 1 16.9483579629 3.36391872821 6.45449681334
1371 1 20.335129481 2.06488854664 4.84367860824
2706 1 21.6735414132 1.88436149933 6.8982067918
1354 1 22.6582253044 2.26012258373 4.07469106873
1389 1 19.730940707 0.286207684932 6.97988700378
2526 1 21.5425871382 0.0613464299876 5.23618512743
2695 1 25.2899575205 1.31690989339 4.41990041602
2730 1 26.2107324368 2.13575979814 6.63790517933
2704 1 25.294669054 3.73284574988 4.4350671621
2731 1 23.8936701104 2.88477798367 6.24242653893
2711 2 23.6503555772 0.491609868539 5.63112694028
2733 1 27.4852287004 0.371567105687 4.96049905318
2708 1 27.5605392345 2.87054509423 4.84674995721
2732 1 29.7821085038 2.00160442754 5.32000024347
2729 1 28.3400184361 1.17338566442 7.09975183631
2728 1 28.3274828983 3.65919223248 7.08675465414
4055 1 33.4915344663 1.97787398421 3.98726056438
4048 1 34.2526676779 2.79256655623 6.1997470613
4050 1 32.0166044955 1.15854282452 5.7590905698
4075 1 34.2495935928 0.301460810166 6.16986820107
4049 1 32.0181664439 3.63728299446 5.76486793409
4052 1 37.9662829568 2.80506368805 4.88064849261
4053 1 35.7450985729 3.61966742341 4.43745439997
4054 1 35.7192534825 1.15042695404 4.40178288795
4074 1 36.4829222185 1.96446004411 6.60444440725
4077 1 37.8997363657 0.350834497916 4.83886476747
4073 1 38.7034736461 1.22389262162 7.04213997833
4072 1 38.8028620925 3.67031889418 7.02125954102
4078 1 41.6524593382 0.473961226209 3.87062235812
32 1 42.5133371432 2.34916632666 5.55460757415
4076 1 40.1543697892 2.03442108399 5.25001596639
5247 1 40.9481752973 0.453550834825 7.35564594914
31 1 0.233024131219 4.09719771712 7.23528048104
182 1 0.886801609662 6.76552025417 4.28894410503
206 1 0.687081890281 4.35744670311 4.66129291346
392 2 2.88592757077 5.49349929424 4.61695848426
224 1 2.20281325282 5.86069093767 6.69272058919
211 1 4.70899702407 4.46428159658 5.62069462779
184 1 4.52690632518 7.09579906706 5.64941457282
192 1 6.85069856008 5.30439023076 5.10345903871
191 2 7.03389532624 7.7114099195 5.29093912182
210 1 6.15166624921 6.06689618974 7.34032527202
190 1 8.4321857782 6.92211803512 7.00486946582
195 1 9.13286463624 6.13735961163 4.75929911094
213 1 8.35912148304 4.46795626521 6.91191327014
1526 1 11.3731743097 6.98092568156 4.37781207043
1544 1 10.6119025858 5.34710071099 6.50155216829
1543 1 10.6559822501 7.81417901598 6.55935681007
1550 1 11.4649528444 4.49386796902 4.3632444114
1530 1 13.6539164788 5.34823755826 3.94938256194