ITEM: TIMESTEP
6000
ITEM: NUMBER OF ATOMS
5376
ITEM: BOX BOUNDS pp pp pp
0.0 42.7297273569
0.0 39.5600404449
0.0 37.0050293879
ITEM: ATOMS id type x y z
163 1 2.04388320373 2.78078393679 1.19475803887
5216 1 1.67805619255 0.552638879475 1.67242516704
186 1 3.62377827939 3.33656534554 3.50811820719
14 1 1.40513083519 2.47084072329 3.65294982161
164 2 3.16439224322 0.595988825324 0.0562949131544
5 1 4.26615924688 2.09640108393 1.55406831718
8 1 6.5405372654 2.81157447591 1.16774685351
9 2 6.57884916834 0.477519077471 1.20193992401
25 1 5.60205947171 1.09834546923 3.36137539926
4 2 5.83838526388 3.45876364507 3.44489095248
7 1 7.90521401982 1.99423338321 2.97086731915
10 1 10.1130870641 2.90501696918 2.5246848479
11 1 10.1232842833 0.423569861663 2.54215460932
12 1 8.67335987011 1.26171559107 0.735979154632
1347 1 10.8480411726 2.10938714286 0.298547299976
1 1 8.63983216223 3.74424757335 0.716164379947
1349 1 14.5295496747 2.22866036613 1.58871487841
1363 1 12.3210308344 1.30918577591 2.09121157332
1346 1 12.3724319854 3.79249883777 2.07583041898
1352 1 16.7903002324 2.75171118211 1.03963459018
1353 1 16.7214383761 0.428977019856 1.12371335653
1369 1 15.9156187422 1.36261526917 3.31941461626
1540 1 18.3526365194 1.56054632683 2.939087905
1356 1 18.9574544205 0.582478575599 0.363583914017
1519 2 18.4459742312 3.68706474073 2.18519672344
1348 1 16.1435183002 3.87113095645 3.22382711772
2710 2 22.236925541 2.29543767179 2.82956236571
1355 1 20.5654465116 0.684683323619 3.08341345183
2863 1 20.4835574427 2.49195398343 1.48684593949
2693 1 23.1846841574 1.84837333743 0.428658807547
1523 1 20.387496535 3.67646071991 3.62061265017
2694 1 24.5516328469 2.86985719486 2.25402433149
2699 1 25.989687512 1.18482700051 0.36549870303
2698 1 26.051728535 3.61763795366 0.480968010768
3868 1 26.8132924044 1.99069557613 2.6880910146
2709 2 24.7974286765 0.467784322749 2.07552210006
2697 1 28.2868259264 2.78227565233 0.912502529887
2714 1 29.0683021027 1.15482034577 3.12858949706
2717 1 30.5312686879 1.96498512969 1.34449749298
2718 1 28.3107050757 0.32449141359 0.924835660472
2713 1 29.0483449951 3.62495761951 3.10694037723
4039 2 32.7757897534 1.20142286944 1.66519296711
4038 1 32.7846930838 3.60986880102 1.78329668894
2734 1 31.3353067917 0.30262569434 3.52293961363
4044 1 34.3389343928 1.936920752 0.0102718405599
2712 1 31.3023012258 2.76737986613 3.53345607009
4060 1 35.047950221 0.286139507829 2.19406320579
4037 1 35.022979118 2.73926715738 2.21376587725
4043 1 36.6190064989 1.14004324087 0.450847546216
4059 1 37.2715614969 1.93726306415 2.66142850922
4042 1 36.540092359 3.59556595304 0.493267616722
4041 1 38.7720877503 2.85745778493 0.966169036415
4062 1 38.8368983165 0.275414557225 0.87903091881
38 1 42.4139933879 1.26891756655 2.49648404937
19 1 42.5805348312 2.5933693797 0.354308402833
4061 2 40.702072277 1.57039951135 0.976412743272
4058 1 39.5471250881 1.15303014842 3.08976324076
4057 2 39.3598953556 3.52378270185 3.31553158019
194 2 3.63391341531 4.59454740718 1.24711271574
17 1 0.220653862116 4.14076176257 2.26615811436
187 1 0.668502566255 6.86888651529 2.04682180538
193 1 2.24038077146 5.17592194396 2.85092346679
332 1 1.67288005363 5.30758354936 0.281925281474
173 1 3.38522363361 7.01561393879 1.45963549169
185 1 3.05880264574 7.46544616329 3.64725363567
177 2 6.54922829578 5.36468012889 1.01462356708
172 1 5.04398342997 5.75154560601 3.06507565518
176 1 6.05223379151 7.69946449385 1.17720759464
175 1 7.62927180943 6.90684728407 2.92804942008
196 1 7.83528296947 4.49281612257 2.92286355359
179 1 10.0443062979 5.36867479165 2.54042350695
180 1 8.58539792699 6.23093259701 0.736021198792
1532 1 10.819325929 4.5887653411 0.306313357622
1515 1 10.7748172225 7.06232071799 0.348456815871
178 1 9.92763547775 7.82420531627 2.56269291381
1517 2 14.2449994335 7.30627402856 1.97254085942
1531 1 12.2315091311 6.2398446947 2.09642293738
1538 1 14.6446697128 4.73198216456 1.56286871533
1537 1 15.9330443059 6.26950061587 3.37811014964
1521 1 17.0581270203 5.19970027916 0.913475964677
1839 1 18.4244249127 5.69528800364 3.1831768117
1520 2 17.4492439532 7.33415321663 2.07174243658
1524 1 19.9846073471 5.05442137301 1.22586495489
2879 1 20.9034191404 6.10180845212 3.2659642755
2689 1 22.2323341087 4.26344259846 1.85736045617
2868 1 22.1348638703 6.39169825569 0.923817961312
1842 1 19.7579182605 7.80316864937 1.72131228881
2692 1 26.804107334 4.47947867564 2.62094949539
2867 1 26.1496855497 6.05566445966 0.42854080844
2883 1 26.7964886694 6.9354098299 2.65359324251
2884 1 24.4971744527 5.27335020879 2.07101927288
2857 2 24.1164694356 6.74915980695 0.00222680246433
2861 1 24.5337409014 7.67865025317 2.17432952025
2696 1 30.5436294661 4.42952455759 1.34791674849
2882 1 29.0249844192 6.1016915087 3.10805426401
2885 1 30.4866493685 6.92262849173 1.33292047329
2886 1 28.3307069432 5.26986562717 0.8982096697
2865 1 28.2141022126 7.76427259998 0.867760109642
4207 1 32.7483907241 6.07144274286 1.78437598426
4212 1 34.2361591522 6.88812537082 0.0433225193833
4033 1 34.2728597865 4.40799371994 0.0435726966139
2880 1 31.2536158509 7.73057504211 3.53608127375
2902 1 31.2725682954 5.25290423066 3.53867815362
4205 1 35.0046219874 7.70538805753 2.22850753162
4228 1 35.0053013512 5.22310033677 2.23651708736
4036 1 37.2482976966 4.42200145754 2.68621224709
4211 1 36.4819883045 6.07130630575 0.501056005292
4227 1 37.2749466466 6.88519373538 2.67815493491
4230 2 38.6878655252 5.36419034376 0.900925151791
4209 1 38.8222701766 7.73841859828 0.944910871466
4040 2 41.9332650041 5.06234342855 0.479950044271
4226 1 39.4697988371 6.07430648047 3.23578908881
4397 1 40.9153441541 6.78172374301 1.51567490424
4246 2 41.695105207 5.67967732335 3.57654746092
4229 1 1.3137620651 9.05322141475 1.66525712286
500 2 2.74970683789 10.7290153024 2.76356567578
315 1 2.43154052147 10.6092645843 0.0354186227313
355 1 3.98949504027 9.29738748245 1.63117153907
345 1 6.19486271421 10.1965496939 1.28114230853
361 1 5.45001157137 8.27930454186 3.37783724161
353 1 5.29804504991 11.0418790745 3.35636640245
364 1 7.60020186571 9.4012298035 3.06740444622
169 1 8.39370885282 8.65873236292 0.846783412665
347 1 9.8616922739 10.3134845414 2.63694623134
348 1 8.41641689099 11.1256110345 0.858582408069
1700 1 10.6800196332 9.51711298751 0.427362877474
1514 1 12.1595967857 8.73322687411 2.18091466082
1699 1 12.0968531877 11.2219955535 2.18926130264
1706 1 14.3495708735 9.6736253295 1.72878459893
1689 2 16.5463980732 10.5889379872 1.43227486551
1705 1 15.9580510825 11.2135922294 3.63363819498
1708 1 18.1668579944 9.52935276261 2.94109071049
1838 1 18.7889730889 10.1961985301 0.678868387816
1516 1 15.8709974756 8.77096841216 3.26264995168
2862 2 22.0033173602 8.23330561769 2.11049627423
1692 1 19.9870712162 10.9014664336 3.33751234776
3031 1 21.2383004483 9.96839515661 0.783857701407
3030 2 21.9090529435 11.5682880365 2.49370699331
2860 1 26.7641682535 9.38847423387 2.6594232813
2866 1 25.9523568843 8.56591509699 0.417055981934
3035 1 25.6801337245 11.0061719953 0.318564078698
3052 2 24.6984138514 10.0352857503 2.29569836625
3036 1 23.5368642195 9.01900614153 0.294314626731
2864 1 30.4518659578 9.40722588711 1.3127663861
2881 1 29.0066519697 8.57875955406 3.07330827867
3054 1 28.1452387252 10.2562417409 0.836169334281
3050 1 28.9999358366 11.0536017638 3.04752290051
4201 1 34.2474742697 9.35692998628 0.0366225565296
4206 1 32.7314120002 8.55045330513 1.77609734827
4375 1 32.7460475458 11.024595879 1.77344688255
3070 1 31.2538980118 10.208858077 3.52135861983
4380 1 34.2984274046 11.819225401 0.0549305684166
4396 1 35.0064252809 10.1847348361 2.22509899991
4204 1 37.2452722243 9.35790949099 2.67469865967
4210 1 36.5325656666 8.5340106411 0.493042400438
4379 1 36.5625311044 10.9778412686 0.484327497347
4395 1 37.1941754038 11.8408096446 2.67493033179
4398 1 38.9019624162 10.1275485554 0.970724172449
4225 1 39.442930089 8.5356764147 3.13086845327
4394 2 39.2321333535 11.0709268743 3.1048049044
4208 1 41.3552132243 9.03027787389 1.29632146117
374 2 42.4061610466 10.4305096559 2.8421460919
4224 1 41.7931519796 8.17352274851 3.55009895242
542 1 41.1130428187 11.6724318828 1.46761799971
170 1 0.994048482177 11.9537044396 1.67111986998
4582 1 1.46360384965 14.1670117205 2.45277047169
499 2 2.24294179418 13.2517090399 0.18565357699
668 1 2.36530524755 15.5163609286 0.00732265994357
343 1 7.59993164628 11.8769204916 3.05407078735
530 1 3.89227183891 14.4461666209 1.70506138064
341 1 3.94279175614 12.0834367029 1.52347076516
340 2 5.58852618342 13.4859310385 3.26146564744
344 1 6.20304751724 12.7105763368 1.20237980432
513 1 6.14688792396 15.2204194778 1.20428977445
532 1 7.67097827144 14.4007987501 2.99603090607
1683 1 10.6588831629 12.0009516051 0.424827827666
337 1 8.44544042496 13.6026607945 0.810314844001
346 1 9.84182373127 12.798742909 2.6227058297
515 1 9.89114209293 15.275417851 2.57483884506
1868 1 10.6684773812 14.4786123934 0.398341924028
1685 1 14.3669780596 12.086379872 1.84744314411
1682 1 12.0720822624 13.6882021386 2.1759929601
1874 1 14.3051094376 14.5619573709 1.76951997885
1843 1 12.9124308634 12.8477479273 0.0271666379157
1688 1 18.0835364134 12.0710195632 2.84509392727
1684 1 15.7506180145 13.7368925089 3.5116931291
1876 2 18.7852106845 13.8914717853 1.19612560659
1857 1 16.5572729526 15.4040320246 1.45744148609
1833 1 16.5207478843 12.9963807224 1.35375273583
1855 1 18.0691043816 14.4820863853 3.23606602264
1681 1 20.4830854843 13.3664528673 3.43944376737
2016 1 20.1020099156 12.1221791616 1.07214238268
3037 2 22.1429440892 14.7996859025 2.38012833165
3051 1 26.751476508 11.868701611 2.55819925037
3028 1 26.8353719542 14.4099292991 2.61669306526
3029 2 24.8873836227 13.1563215139 2.66245280384
3034 1 25.9711045155 13.5716473626 0.371896084656
3220 1 24.5705937194 15.3947502697 2.24100347011
3025 2 23.7998075864 12.787439066 0.0219554177734
3053 1 30.4886384789 11.8711790181 1.32008114093
3032 1 30.5580934268 14.3520120956 1.38882931335
3033 1 28.1962063377 12.6862453307 0.801688325333
3222 1 28.3176745686 15.1627644869 0.877899003477
3049 1 29.0094962744 13.5100616327 3.05445695361
4374 1 32.7973298863 13.5017759653 1.80972949479
4369 1 34.3303563237 14.2985236057 0.0791331007265
3048 1 31.2675512254 12.6917645215 3.52107080729
3238 1 31.3011909057 15.1696761689 3.56693045914
4373 1 35.0139462316 12.6623999597 2.238463775
4564 1 35.0881512201 15.1284592753 2.26938771696
4372 1 37.364396186 14.2976584467 2.72740110526
4378 1 36.6007722343 13.4545412754 0.546657660386
4377 1 38.8557653212 12.6106119055 1.0312465331
4566 1 38.9746172823 15.072492216 1.03904496802
339 1 41.3879358752 14.0854782259 1.6482318011
4393 1 39.7065384152 13.3782696143 3.21539389709
4392 1 42.3354078266 12.7990905555 3.63744361353
523 2 0.448251687478 16.01779986 1.94064561926
4703 2 1.25410326335 18.9518600961 1.26620645895
698 1 3.75786453662 19.3726941771 1.60740608633
710 1 0.99988451805 19.2099456164 3.66184678619
509 2 3.99206611876 16.9210026119 1.3511302785
529 1 5.35376692131 15.9733225326 3.348672992
508 1 5.28059253346 18.4943979682 3.34519748963
512 1 6.14841680459 17.718939613 1.19799726477
511 1 7.57461532709 16.8725333011 2.9836974778
700 1 7.56301930888 19.3556903047 2.94396532953
516 1 8.40482004082 16.0757699999 0.820524472787
505 1 8.40696368111 18.5566953235 0.781470440054
514 1 9.85579368581 17.7331250104 2.55908294547
1851 1 10.6337648294 16.9465381874 0.37136203749
2036 1 10.6875291157 19.4109498632 0.375226640831
1850 1 12.137454437 18.6135794823 2.18575466419
1853 1 14.4401499113 17.0363490779 1.76185461043
1867 2 12.1687189348 16.2289518731 2.01828562366
2042 1 14.3783940082 19.4448962841 1.76110665772
1852 1 16.1770656551 18.8105494215 3.29079466593
1873 1 15.7830483901 16.2174326916 3.558783197
1856 1 16.7262549467 17.8116426089 1.26496777866
1849 1 18.7100781192 16.1710657987 1.0652407284
2044 1 18.0776250428 16.9239692775 3.47676920609
2023 1 18.7671115498 18.853805599 2.07342164743
3198 1 22.4106328004 18.4055651547 1.92239830939
3026 2 20.581277043 17.2860495383 1.27330137144
2027 1 20.7246563937 19.5308155118 0.567682430685
3203 1 26.0994050653 15.9954093393 0.393298984705
3196 1 26.8073167713 19.310794345 2.61223126861
3197 1 24.6830874215 17.7842712477 2.24814677399
3202 1 26.0499519695 18.4781393502 0.38054140994
3219 1 26.8623766321 16.8408355379 2.63778646857
3204 2 23.9961784133 17.0405214948 0.222097119865
3218 1 29.0732018158 15.9930714195 3.10114944752
3200 1 30.5929431069 19.2768378472 1.35585275743
3201 1 28.3108383884 17.6309460013 0.858587757834
3217 1 29.0708033205 18.4702461949 3.08989966621
3221 1 30.5692152163 16.808246297 1.34968242768
4543 1 32.8242076978 15.9710524825 1.82107261207
4542 1 32.8467121309 18.4362691587 1.83014964559
4548 1 34.3686415475 16.7711546682 0.093782675974
3216 1 31.3077091712 17.6298805824 3.55632355672
4537 1 34.3835154644 19.245364903 0.0865033858988
4541 1 35.1112180742 17.5957892282 2.28790462189
4547 1 36.6553260366 15.9260864704 0.558662878755
4540 1 37.4087377205 19.2289899159 2.73465583611
4546 1 36.6521494395 18.4087363566 0.549389372985
4563 1 37.3899519771 16.7577646263 2.74387504008
4562 1 39.637534605 15.8402957806 3.26358206993
4545 1 38.9384889501 17.6033567622 1.00847028681
4544 1 41.4083106277 19.2811447991 1.53857580529
4565 1 41.0732614656 16.696182537 1.53008753652
4561 1 39.6666860501 18.3437402481 3.21582413289
4750 1 1.66065381589 21.0927364665 1.77022061272
691 1 1.83139948688 23.3866287592 1.81173153787
689 1 3.21624558607 22.7728657076 3.63573650163
677 1 3.94229122089 21.7975183954 1.49407259394
680 1 6.20427047122 22.6712097136 1.14747832515
681 1 6.10016334509 20.1786891881 1.14129030153
697 1 5.42437585912 21.0203815115 3.30339883023
676 1 5.44428568883 23.5093496368 3.36967383884
679 1 7.66188144594 21.8479164689 2.94074101676
682 1 9.92725021106 22.6994210148 2.53215781894
683 1 9.8710588944 20.2115879765 2.54334441639
684 1 8.4180158758 21.0282671219 0.765593446031
673 1 8.47419162812 23.518782269 0.751108866937
2019 1 10.7005307361 21.8807204537 0.356206137652
2021 1 14.4981614446 21.9253659942 1.72594348395
2035 1 12.1779302953 21.0692317431 2.12420258592
2018 1 12.2095612254 23.5471720575 2.12037494804
2025 2 16.5379339215 20.4246806937 1.62519960148
2024 1 16.8031700326 22.6154596598 0.996786851538
2041 1 15.7904677498 21.1296595505 3.65362246459
1854 1 18.2572867897 21.0071498402 3.24300520833
2020 1 16.0203856382 23.6251658194 3.48503407767
2022 2 18.3170946957 23.2582366593 2.4756294214
2212 1 18.9917943355 21.2356127569 1.00075496562
1858 1 20.6014900158 20.0319385518 3.21066494487
3367 1 22.3522268418 20.8657757905 1.72297358906
3541 1 22.1564938067 23.6847784035 1.5069194965
2043 1 20.5243374265 22.489945178 2.79010195119
3373 2 21.1411647387 21.9488307218 0.227686074193
3388 1 24.5200351425 20.163495194 2.19528581984
3365 1 24.4271675891 22.5341554315 2.22250548121
3371 1 26.0225054314 20.8816258044 0.435053531526
3387 1 26.7777141526 21.773957033 2.63199288508
3370 1 26.2255305842 23.2596065567 0.640759293706
3390 1 28.3266793664 20.1031402688 0.882287501465
3369 1 28.4116274456 22.5627474942 0.927373383127
3389 1 30.6352101701 21.7440233111 1.36091941944
3386 1 29.068179007 20.9382602245 3.09182355359
3385 1 29.0887704124 23.4026983513 3.1302950023
4711 1 32.8749726476 20.9031715878 1.81628156226
4716 1 34.4039590209 21.7196528937 0.0469273512753
4710 1 32.8334764605 23.3827140143 1.80553788547
3384 1 31.3301497437 22.5602184365 3.57263019661
3406 1 31.3266671573 20.0965899541 3.56185303043
4709 1 35.0913852479 22.5385936331 2.25092764067
4732 1 35.1331633689 20.0646768949 2.27125538784
4715 1 36.6999116487 20.884802609 0.505641413828
4714 1 36.6055483094 23.3557209212 0.462595535396
4731 1 37.3213627514 21.6958645516 2.72114749737
4713 1 38.8289312126 22.5536192976 0.938622530147
4734 1 38.9924893458 20.0515853135 0.992945385166
4733 1 39.5065294457 20.7961014879 3.25622179056
4729 1 39.7013268991 23.3283123181 3.14909096377
675 2 40.8153258279 21.7227247071 1.65655943254
4918 1 42.3693363731 23.0449238189 2.72887654279
860 1 42.6094781287 21.959802877 0.287616574173
878 1 0.47892452709 25.1472108471 1.78801560152
1027 2 0.789549066073 27.2859462946 1.32448346563
858 1 3.08641814128 25.3114480007 3.34322484649
4896 1 0.974795693564 26.6449898173 3.65976821571
1004 1 2.42386457046 25.2754239746 0.219056231532
866 1 4.10130538633 24.2006780163 1.5044298022
845 2 4.15647388928 26.7017332918 1.5777138241
849 1 6.26886607993 25.1452485226 1.15211308645
865 1 5.46496231237 25.9530970462 3.36113114616
848 1 6.34402407612 27.5879301917 1.16596950992
868 1 7.69459449708 24.3302408146 2.94181600017
847 1 7.74041086791 26.8011237365 2.94702994803
851 1 9.94660766943 25.1899482698 2.51494640304
852 1 8.4975001045 26.0103965483 0.734052260669
2204 1 10.7388321403 24.3660343798 0.332351649918
2187 1 10.7444403578 26.8543641913 0.306232220382
850 1 9.95934015878 27.6702697417 2.48840163592
2189 1 14.4773853342 26.8487383892 1.64866715106
2203 1 12.2014726061 26.0316378877 2.08317307607
2210 1 14.5143526273 24.3634251365 1.71107183829
2193 1 16.8079367628 25.1024487423 1.34857492746
2209 1 15.8706535842 26.0746539106 3.44146063102
2211 1 18.1350310553 26.9211588781 3.12355619611
2352 2 18.8460801382 25.9603607922 0.965765351709
2192 1 16.7483737559 27.642912608 1.25498856631
2017 1 19.5296529711 23.7660402076 0.497027030165
2195 1 20.2105199366 24.8396893485 2.926870217
3366 2 22.3855348389 26.0504597507 2.49394669846
3534 1 20.3875465986 27.2820757056 2.42824541382
3364 1 26.8616490272 24.2381268912 2.7436622299
3539 1 25.9003364915 25.8419376765 0.377179502772
3555 1 26.7352954013 26.672170508 2.59918454027
3556 1 24.6027877948 24.9584977261 2.37355185302
3361 2 24.188486944 24.0225012959 0.367484563558
3533 1 24.5021971748 27.4108592987 2.22940155219
3368 1 30.5595006739 24.2319541809 1.36395791597
3554 1 29.0147748117 25.8778446046 3.12087909453
3557 1 30.5219550344 26.7004773191 1.35773552574
3558 1 28.243693911 25.0642239881 0.912987792016
3537 1 28.2298779986 27.5343719029 0.885045255446
4879 1 32.8055271269 25.8529080305 1.8050473911
3552 1 31.2589298397 27.5106497008 3.55903081037
3574 1 31.2922452248 25.0373993443 3.56706478147
4884 1 34.3302930712 26.6627054809 0.0598353949483
4705 1 34.3412416939 24.1898623542 0.0355975085751
4900 1 35.0869703183 25.0015341376 2.23679374317
4877 1 35.0511270695 27.4756605877 2.22962790477
4708 1 37.3799827095 24.1423204878 2.67569742686
4883 1 36.5793962587 25.8133281141 0.445879157312
4899 1 37.3144681387 26.623648717 2.65777511977
4902 1 38.8291270096 25.0244640199 0.90474621189
4881 1 38.8509133164 27.4399791663 0.890173968532
4712 1 41.0536494987 24.3180041496 1.19407669861
4901 1 41.1366718869 26.7288882278 1.52889162096
4898 1 39.5658355551 25.7862399582 3.11260070762
1046 1 1.66970237849 29.1701143393 2.22724560975
5207 1 1.23823415509 31.0521701264 0.986416754471
1034 2 3.41865264584 29.7374431055 0.52939827756
844 1 5.453104417 28.4406504953 3.295745345
1017 1 6.14559387263 30.05172242 1.12933341688
1033 1 5.55970044531 30.92204661 3.33669097495
1036 1 7.72022461119 29.2659939077 2.87920282172
841 1 8.51095534744 28.4872807374 0.710088070502
1019 2 9.99653423838 30.1949895891 2.3393424962
1020 1 8.43568570136 30.938053197 0.661245387352
2372 1 10.7588381893 29.3122990787 0.24741172075
2186 1 12.2099246833 28.505495614 2.04460957933
2371 1 12.2571157314 30.9781913548 2.00933119161
2378 1 14.5164186668 29.3184002184 1.63067625421
2188 1 15.909497624 28.5099334913 3.4780780791
2377 1 15.8941297167 30.9024787793 3.38713118114
2191 2 18.7438734419 28.9950252091 1.50884503182
2360 1 16.7893508045 30.2327993654 1.29945366008
2194 1 19.3511666276 31.1420567476 0.832018440525
2361 1 18.3696672742 29.4511150389 3.64656290433
2363 1 21.9533387862 31.1366714961 1.55469675916
3531 1 22.4082373508 28.3096214937 1.49983779086
2379 1 20.8519151396 29.5566682342 2.90245888202
3708 1 20.7020801311 29.2587757258 0.181011262898
3532 1 26.6776519124 29.161107719 2.62832809165
3538 1 25.9287525495 28.3663306066 0.418818642385
3707 1 25.9290058206 30.7987610031 0.429670920502
3724 1 24.2875213545 29.9517590114 2.17330748203
3723 1 26.7386320363 31.6450762345 2.59793623993
3536 1 30.5096979906 29.1746533343 1.35002775949
3553 1 28.9773305809 28.3503836898 3.09624761152
3722 1 29.0034734707 30.8359695065 3.07871887774
3726 1 28.2333561413 30.0093554652 0.891807344535
4878 1 32.7796307724 28.3247362267 1.7995235586
5047 1 32.7721011245 30.8066805354 1.79024247812
3742 1 31.2624253675 29.9888320236 3.542602235
4873 1 34.3100003519 29.1270613196 0.045886093301
5052 1 34.2852961104 31.6182706591 0.0304385860416
5068 1 35.0192094886 29.9515019072 2.23791543705
4876 1 37.2452732057 29.0832370072 2.68322600045
4882 1 36.592880428 28.2893109934 0.453689035852
5051 1 36.5053112285 30.7717354034 0.463474012772
5070 1 38.685370124 29.9444074139 0.877337825731
5067 1 37.2831518418 31.5501902851 2.6499134299
4880 2 40.700907161 29.1370422831 1.30493876792
4897 1 39.4920586504 28.2713377054 3.13534277977
5066 1 39.5492858415 30.7205611255 3.09289488919
5086 1 42.040471822 30.0146555944 3.07179784016
5069 1 41.0374108914 31.45265407 1.31320567803
5024 1 42.5944141145 29.2703870281 0.101240389386
1010 1 0.101323709841 32.9778309068 1.65473645309
5048 2 2.1645636542 32.9588530602 2.21799419609
1178 1 1.03875687751 35.1763267928 1.75944301543
1195 1 3.17970638143 34.844981244 3.68930340147
1013 1 3.96164672721 31.6982823685 1.52580004564
1202 1 3.93592434992 34.1906398697 1.50340486225
1016 1 6.18283625654 32.561627905 1.07832168385
1185 1 6.18884468082 35.0537034971 1.13553060872
1025 1 5.57164914483 33.3594807361 3.27555937772
1015 1 7.76202963076 31.7249550365 2.84301916465
1204 1 7.77968385351 34.2080317136 2.84965923281
2355 1 10.7407241155 31.7845488369 0.253094890138
1009 1 8.4764749437 33.4114711273 0.666648914855
1018 1 9.99792542039 32.611580673 2.43017671032
1187 1 10.0344104412 35.0631738613 2.45482246965
2540 1 10.7696645127 34.2547022769 0.264773505105
2357 1 14.5389775839 31.8268153659 1.61403126328
2354 1 12.2656447728 33.4365230521 2.02966918388
2546 1 14.5336089076 34.2600673725 1.58719457546
2358 2 18.0892171929 31.8195060975 2.80231323719
2527 1 18.2629299297 34.2937347515 3.2194721173
2688 1 17.0668413023 32.8550180969 1.13930541201
2356 1 15.9716184582 33.3639903514 3.2892937242
2529 1 16.6849406429 35.3403743244 1.2300891478
2673 1 18.9675393276 35.08471182 0.958298206382
2362 1 20.020247883 33.1158362785 1.88846138767
2682 2 22.5047243418 33.4961631532 1.74052769451
2531 1 21.5119855295 35.1542426678 0.456873427263
2532 1 20.9550022253 35.4384125416 2.69444568796
3700 1 26.621690704 34.1618247302 2.64536563352
3701 1 24.46527155 32.4336394121 2.16987313063
3706 1 26.0082595397 33.3246003086 0.430721602051
3892 1 24.0892979267 35.2058551608 2.04875480252
3725 1 30.5182039923 31.6594889132 1.33769713413
3704 1 30.5294465849 34.1350599975 1.3392840126
3705 1 28.259312859 32.4948229949 0.88120272445
3721 1 28.9621160917 33.3304597909 3.07673215163
3894 1 28.2649530383 34.9531041764 0.936725289487
5046 1 32.7814901116 33.2897360211 1.78105689482
3910 1 31.2777667479 34.9443987565 3.53770875603
3720 1 31.2555404102 32.4722132641 3.53084862226
5041 1 34.3065132913 34.1030954638 0.0258990430103
5236 1 35.0462430114 34.9175922699 2.22508059847
5045 1 35.0312862927 32.4282438052 2.22642059683
5044 1 37.268285385 34.0509883371 2.66120593359
5050 1 36.5420315746 33.2542827179 0.473224221833
5049 1 38.7803578643 32.4178869653 0.943931047706
5238 1 38.7677197932 34.9295013171 0.949886606433
5065 1 39.4714252192 33.2449150025 3.18724179732
5237 1 40.884022098 34.0453311279 1.39348533245
5064 2 41.5715308611 32.5043646968 3.43294054401
5254 1 41.82486872 34.9875925797 3.46972891896
1193 2 2.56095118378 38.2989648205 2.87756023886
20 1 0.485333545702 37.9658124918 1.97468901181
1339 1 2.31783797824 38.0455830135 0.192060918573
1181 1 3.64184669164 36.5622251281 1.66955716654
1201 1 5.46179079461 35.7941167923 3.29914462036
26 1 4.35808639075 39.1452009901 1.76943525898
1184 1 6.15450482802 37.5086472798 1.20473345143
1180 2 5.79995070758 38.1315812951 3.59210839383
1183 1 7.76907654478 36.6586163208 2.93939343544
28 1 7.90005425332 39.1016854591 2.98436662883
1188 1 8.47552879085 35.8817218948 0.725182687378
1177 1 8.50447050235 38.3267164814 0.75663639519
1186 1 10.0344902108 37.5219552811 2.51231364078
2523 1 10.7652689432 36.7160033444 0.295748931781
1364 1 10.7584432054 39.1802135527 0.308366963234
2539 1 12.3056142848 35.9112761236 2.03764267094
1370 2 14.3854517386 39.3069046733 1.68705374236
2522 1 12.2924935081 38.3561219369 2.09343438048
2525 1 14.5274847788 36.6837282515 1.46581996714
1351 2 18.767305441 38.8295617079 2.2264155217
1372 1 18.2676720961 36.6165108949 2.86120507181
2524 1 16.1844997261 38.1029156918 2.32315795572
2528 1 17.5558664677 37.5890392502 0.597273643677
2545 1 15.9180737514 35.7977403056 3.36827766867
2716 1 21.1630801237 39.3078336153 0.838405609638
2521 1 19.8992381974 37.1797599079 0.885576553091
3702 1 22.3096227956 37.1911027135 1.67857588231
3870 1 22.7095490428 39.3146824593 2.73807763969
2530 1 20.597886998 37.7609380024 3.25710146743
3865 1 23.6164915368 38.9744644374 0.194065754065
3875 1 26.027633604 35.7903893205 0.544375698313
3869 1 24.5541987473 37.5885937948 2.56227673967
3874 1 25.9702997721 38.2668443686 0.558462106678
3891 1 26.7143798375 36.5964521934 2.75412661893
3885 1 26.8573945066 39.0521045259 2.75357404734
4015 1 23.9000150567 36.6142451247 0.00620293380992
3890 1 29.0119185408 35.7814119546 3.1153432376
3872 1 30.6022837818 39.0686171541 1.32089536017
3873 1 28.2460322352 37.4256838898 0.945569263039
3889 1 29.1522343216 38.273548796 3.04413016844
3893 1 30.5376943888 36.6110013167 1.36662477716
5215 1 32.798067229 35.7737230914 1.76957777946
5214 1 32.8439839315 38.2422764935 1.75603173945
3888 1 31.3885169438 37.404873756 3.51844128559
5220 1 34.3284623995 36.5825755602 0.00505520809309
5209 1 34.3657403181 39.0370263099 0.00152369687958
5213 1 35.0779683558 37.3870531955 2.18395738487
5219 1 36.5682398677 35.7528370366 0.460458359382
5212 1 37.3139552714 39.0363902614 2.65446405211
5218 1 36.6441284662 38.2251596794 0.443375854173
5235 1 37.3223385073 36.5432425401 2.67030732149
165 1 42.4125832002 39.279277311 0.0997434788921
5217 1 38.9225159287 37.3960003234 0.985479688719
5234 1 39.5676521791 35.7307791687 3.17929641421
4196 1 40.9582476761 38.8975503077 1.83123696803
5233 1 39.4784403559 38.1730696711 3.36151388084
1179 1 41.1989091704 36.4793378656 1.48083819835
37 1 2.35518959963 0.997011187766 6.01895254205
13 1 2.596917306 3.36095034853 5.75879651346
31 1 0.18161983286 3.84049793238 7.2437864406
18 1 3.17877110138 0.895274750821 3.80923826164
16 1 4.7407332635 1.96257992007 5.48231306713
23 1 7.11831244532 2.7736783291 5.17490405776
24 1 7.11785977233 0.303594282264 5.13929064122
15 1 6.27074675298 3.61406846004 7.29886392443
42 1 6.27545386609 1.1753942341 7.24928178845
22 1 8.54882612693 1.99102140633 6.93684762322
27 1 9.35559377124 1.21170183555 4.74758603299
1375 1 10.7807704399 2.88724950256 6.53290896803
1376 1 10.839123567 0.415905787791 6.52370769458
6 1 9.33379972043 3.70094252132 4.72520060806
1358 1 11.6238079883 2.10472908369 4.32911860351
1361 1 13.8833917987 3.01783638221 3.85785590584
1362 1 13.7720421153 0.535266738788 3.9285580756
1360 1 15.3601379776 2.18466974521 5.56973669969
1381 1 13.146087506 1.31931601199 6.13910225959
1357 1 13.0025998663 3.7764473437 6.18725139173
1367 1 18.0348864811 3.35696433395 4.69410836771
1368 2 17.4500370415 0.977567205223 5.04338567986
1359 2 16.7948354583 3.42876874072 6.74930142915
1371 1 19.7429424149 1.37458232419 5.22905484062
2706 2 21.5629975469 0.941035211718 6.76860445993
2726 2 20.1605397327 3.55443101235 5.79643080604
1354 2 23.8413676867 2.53812535919 5.22795979336
2695 1 25.3859256348 1.04623591269 4.43485924274
2730 1 25.9535522079 2.15099792334 6.60811267861
2704 1 25.4985479723 3.72399706362 4.38617566323
2733 1 27.5257249873 0.332966331697 4.96249713164
2708 1 27.6082881237 2.79033689017 4.89951367147
2732 1 29.8276426792 1.97377949941 5.30788332581
2729 1 28.2968869292 1.19783137058 7.05017497965
2728 1 28.3957819562 3.63726404611 7.09982750518
4055 1 33.5300603993 1.89028331744 3.94866083899
4048 1 34.2412324409 2.73453416256 6.14628713684
4050 1 32.0269832116 1.12600493803 5.73280208978
4075 1 34.2069397575 0.276700705668 6.1307329204
4049 1 32.0260439159 3.59068927634 5.73667927083
4052 1 37.950300791 2.71659516675 4.87178183632
4053 1 35.7300117849 3.55072424604 4.39868854588
4054 1 35.7858810105 1.05378280748 4.39437504587
4074 1 36.4725232247 1.92851973497 6.56860913894
4077 1 38.0928700869 0.223642545392 4.85957322694
4073 1 38.7411783438 1.08877904185 7.05397104516
4072 1 38.7607035465 3.5787463418 6.98794004324
4056 1 41.520952902 3.08017323399 3.76349566387
4078 1 41.3160595349 0.266346469359 4.40880253106
32 1 42.6536969718 2.05796505207 5.50967148174
4076 1 40.1298049318 1.94193489236 5.40563910576
5247 1 41.3215211249 0.338196659919 7.3141574205
182 1 0.880651845567 6.77952940025 4.5811908001
206 1 0.566018645577 4.38920446014 4.8748767452
392 1 2.99657951978 5.53978018857 4.95480441679
224 1 1.696598507 5.59060734734 6.9215383501
218 1 2.57849547222 7.77678039706 6.23584963805
211 1 4.92193191476 4.36926128636 5.44904800482
184 1 4.85756549485 6.99721553362 5.37495004249
192 1 6.99717141337 5.31617648757 5.03839850842
191 2 7.13883001385 7.76184655697 5.20086982542
210 1 6.32552369853 6.03506412679 7.3068107976
190 1 8.50295502096 6.96374215075 6.97241068888
195 1 9.23394016596 6.17032421075 4.72692215654
213 1 8.49490677851 4.49780934572 6.89109298882
1526 1 11.4462877474 7.0453674959 4.35358608477
1544 1 10.7565710036 5.37891783609 6.51914528808
1543 1 10.7227269098 7.84353948191 6.55662672185
1550 1 11.5601729083 4.56859616679 4.31825934674
1530 1 13.7334145609 5.47483337437 3.82888544559