ITEM: TIMESTEP
30000
ITEM: NUMBER OF ATOMS
5376
ITEM: BOX BOUNDS pp pp pp
0.0 42.7297273569
0.0 39.5600404449
0.0 37.0050293879
ITEM: ATOMS id type x y z
5216 1 0.683013827289 2.05504567854 2.04573030106
186 1 2.89520812471 2.58086867694 3.1515710844
1207 2 1.7522638857 0.253421324473 2.96737909951
163 1 2.38828024476 2.77537232685 0.182568640688
5 2 4.37353401646 2.1590846122 1.51976929316
8 1 6.36070467657 2.98451510007 1.16088698585
9 1 6.14739394717 0.416174737174 1.22643128983
25 1 5.44260023819 1.24522279671 3.43181663078
4 1 5.39831096481 3.71081696004 3.41361204661
7 1 7.72791371578 2.11668954636 3.01626738222
10 1 9.9713433202 2.97145809723 2.5850828036
11 1 9.92573718647 0.499528081842 2.56454015564
12 1 8.38651410196 1.33023986718 0.797092774025
1347 1 10.7143733597 2.13465643387 0.426894912191
1 1 8.52849991644 3.80624641558 0.795871626056
1349 1 14.5214031693 2.11830530906 1.79876187038
1363 1 12.2332880853 1.31278035999 2.18599452481
1346 1 12.2499102585 3.799407646 2.200348754
1507 1 13.0123742451 2.96491950414 0.0664554180742
1508 1 13.002508791 0.493084121342 0.0049163020913
1352 1 16.7513741207 2.79999975455 1.59522787677
1353 1 16.9762002275 0.379701794139 1.41381289854
1369 1 15.9815921325 1.16389209063 3.50173046715
1540 1 18.3558789128 1.69876405388 3.07230150375
1356 1 19.4069705098 0.745882779502 0.502408008707
1513 1 19.7340246966 2.82551821375 1.39288247035
2710 1 22.1189194028 1.15634095909 1.60525491334
1355 1 20.5646956734 0.245911332299 2.98774323158
2689 1 22.130876875 3.50169298064 1.79485208126
2863 1 20.6369902264 2.58895906148 3.62537351044
2694 1 24.4575707412 2.80275192285 2.13634765279
2699 1 25.9753402318 1.12697558294 0.393664636695
2698 1 26.0454724918 3.59144183304 0.419001098021
3868 1 26.757448743 1.96712017221 2.55709207279
2709 1 24.4316003424 0.317026965205 2.12129717307
2693 1 23.7139580835 1.87039819367 0.023314590606
2697 1 28.2840893927 2.75409986762 0.814992111352
2714 1 29.0309037254 1.10216641119 3.00467535076
2717 1 30.5413766242 1.90595982147 1.2547465262
2718 1 28.2490750362 0.284873549016 0.818475511043
2713 1 29.0243808799 3.5747897863 3.01679121791
4039 1 32.8020950184 1.05393507851 1.69425712946
4038 1 32.7977712911 3.53100470016 1.70666131575
2734 1 31.2892437486 0.246310690925 3.45437802578
2712 1 31.2900563058 2.72013896083 3.45947341816
4060 1 35.0722964461 0.195872271608 2.12734493739
4037 1 35.0575318356 2.67597555781 2.13393605268
4043 1 36.5417613836 1.03278934381 0.350418987912
4059 1 37.3232940254 1.821998465 2.55427462899
4042 1 36.5587747883 3.50439725883 0.374948662762
4062 1 38.7616307015 0.214426289501 0.811293554823
4041 1 38.8159826154 2.68413480715 0.810702435177
4058 1 39.5911238647 0.995156297559 3.02542112853
4057 1 39.5742711694 3.48565734846 3.01475705662
4196 1 41.0738440425 1.91081543681 1.34716964213
4056 1 41.8916732903 0.25444271961 3.50980983204
17 2 41.7104531228 2.58091592837 3.66739696709
193 1 1.50335273036 4.39947535782 1.77601897353
187 2 0.772280524058 6.4667171651 1.32975280755
185 1 3.43219501358 7.74682343806 3.49473384656
194 1 3.97702460605 4.54048749327 1.58246848181
173 2 4.10995102168 6.95723787051 1.31211467298
177 1 6.26050884285 5.42958120404 1.1858357844
172 1 5.42549775822 6.15800294564 3.33408781108
196 1 7.68101883347 4.58517705041 2.99387257867
175 1 7.7346445863 7.05131903229 2.98609128022
176 1 6.27861731635 7.89214880424 1.2145361788
179 1 9.96564030893 5.4389161386 2.59008830719
180 1 8.53877396561 6.26227908493 0.81365245452
1532 1 10.7603946045 4.62265652554 0.40709166863
1515 1 10.8127983782 7.10743070761 0.376039382893
1517 1 14.399044305 7.06903189942 1.8318195997
1531 1 12.2118533356 6.26897817209 2.18714953573
1538 1 14.5702983593 4.58498572185 1.83323916654
1676 1 13.0049892713 5.41455921865 0.0331821863053
1519 1 18.254979746 4.26996127093 2.94845479802
1521 1 16.8114109308 5.51874933837 1.49646560845
1537 1 15.9818418729 6.29866188382 3.60107401039
1520 1 18.8035494695 7.35360574668 1.03053002026
1839 1 18.3767576983 6.71956302481 3.2929403386
1672 2 18.0466954533 4.0273546947 0.281479134043
1524 1 19.7995695065 5.28358396661 1.61982925094
2868 2 21.8919328653 5.65177308183 2.40679984009
1680 1 21.0343302827 7.04464765787 0.510600318372
1842 1 20.6372881731 7.65668959926 3.0670925049
2692 1 26.7472490967 4.44953876756 2.5881594064
2867 1 25.9895512439 6.11200843691 0.508710429026
2883 1 26.7343063333 6.898060131 2.65506296012
2884 1 24.3733434832 5.32488134234 2.20289365825
2861 1 24.5198942438 7.79312112671 2.134228056
2715 2 23.9443533458 4.38710305729 0.0769477968905
2696 1 30.540747047 4.3856560182 1.27260554733
2882 1 29.0279948643 6.049283932 3.04008230536
2885 1 30.537485809 6.86535807275 1.28307991298
2886 1 28.2773427777 5.24049588544 0.850327028387
2865 1 28.2725722656 7.71777264747 0.874569513062
4207 1 32.7907923618 6.00974361193 1.71928138365
2880 1 31.3113913259 7.67135180186 3.48201675905
2902 1 31.2932071031 5.19570400778 3.47325020872
4205 1 35.0385499456 7.63363412841 2.14108192542
4228 1 35.0454850292 5.15404460791 2.15472822079
4036 1 37.3015357227 4.29728759488 2.5931692511
4211 1 36.4988592614 5.98077457558 0.376582003111
4227 1 37.2871701004 6.76919457776 2.57159378496
4230 1 38.711557908 5.16747970277 0.793116152404
4209 1 38.7768747966 7.61770400365 0.832142627654
4061 2 40.8065867915 4.39460678521 1.08498349005
4226 1 39.5443822374 5.93304764243 2.95797511582
4397 1 41.0983107012 6.85439732699 1.315877758
4246 1 41.8754971717 5.16794334314 3.00966113197
182 1 41.9085639556 7.66760920659 3.57355674406
4229 1 0.852857326678 8.63667558085 1.86929847897
374 2 0.313810271875 10.9651502281 1.72621314068
355 1 3.8342210763 9.36256743665 1.67872296424
499 1 2.17923285464 10.2465634467 0.136870066143
361 2 5.71688391278 8.6474923613 3.46606341889
345 1 6.14532093359 10.3187015266 1.19465382254
353 1 5.46576715867 11.0846277624 3.39504472596
341 1 3.9458339835 11.8080967628 1.6466219945
364 1 7.77718549122 9.55286430957 2.95098711546
178 1 10.0112307487 7.9206032704 2.55647728872
169 1 8.51383634154 8.72963048287 0.769323178748
347 1 10.0121319376 10.3949259533 2.54072576887
348 1 8.4548155816 11.1832660806 0.80140802296
1700 1 10.7983316936 9.56283462327 0.371897718051
1514 1 12.3298002236 8.74881379412 2.14559782232
1699 1 12.2824786927 11.2175819444 2.11567148286
1706 1 14.6720046207 9.57835006856 1.74358159645
1516 1 16.5296041537 7.96249724665 1.74934671598
1689 1 16.9656870993 10.4608788675 1.13575561656
1705 1 15.9686525743 11.4088089574 3.21081401065
1708 2 18.5583927878 9.00612406521 2.49905185426
1688 1 18.6063969189 11.3549093052 2.83161636187
1848 1 19.8589627279 9.62582261856 0.751286995148
2862 2 22.2233917512 8.68594525694 1.42304200153
1692 1 20.8897258292 10.0501207471 3.1756476352
3031 1 22.5618414991 10.9724738142 1.51339483832
1876 2 20.486164473 11.7270627245 1.45340649499
2859 1 23.1447969774 9.21914790372 3.66625593702
2860 1 26.8319038174 9.33036734409 2.6132062146
2866 1 26.031735974 8.56882962556 0.412493117678
3035 1 25.9849201495 11.0738273034 0.301919693083
3052 2 24.7834946909 10.251187538 2.10513200149
3051 1 26.8262819955 11.8159680435 2.55294807865
2864 1 30.5232323988 9.34434675839 1.27881610486
2881 1 29.0523947452 8.51285097686 3.06178642336
3054 1 28.2637240541 10.2011019249 0.825996609212
3050 1 29.0459721596 10.9827210275 3.04316225851
3053 1 30.4951313286 11.8205139656 1.26626929799
4206 1 32.7823678866 8.48975886885 1.71033363719
4375 1 32.75923511 10.9656406905 1.69493877749
3070 1 31.3041206816 10.1498459942 3.47862630761
4396 1 35.0242444873 10.1044137576 2.12388935755
4204 1 37.2901072535 9.23542049028 2.56615462575
4210 1 36.5166810549 8.45485810298 0.36133308945
4379 1 36.4875344413 10.9166235343 0.329766577957
4395 1 37.2253432609 11.6928429632 2.54461002151
4398 1 38.7549775172 10.0733501459 0.798670154886
4225 1 39.578103441 8.38654802003 3.01249045509
4394 1 39.4971378938 10.8591759167 3.04844258006
4208 1 41.0414783046 9.23257106823 1.27957543934
4224 1 41.8064355021 10.0775871989 3.42261781704
542 1 40.7838497543 11.603174213 1.18300146021
170 1 1.69944901623 12.9137186017 1.7765404612
523 2 0.00773895516889 14.3112601799 1.78435158773
530 1 3.8714246716 14.278271122 1.76081399331
522 2 2.48222309695 14.8375576456 0.0201789961586
340 1 5.4431061262 13.5566123813 3.48644277888
344 1 6.14688128502 12.8100259507 1.2545419201
513 1 6.09099704184 15.3225030781 1.28866497802
532 1 7.65425133738 14.4949962292 3.01487800293
343 1 7.68721662947 12.0033031437 2.9844783936
1683 1 10.7307075246 12.0218187251 0.394102487807
337 1 8.41928891644 13.6610168363 0.826874550375
346 1 9.9473143272 12.8534942243 2.55440759314
515 1 9.91512582458 15.3294406021 2.53899862767
1868 1 10.678861453 14.489721378 0.363159585171
1685 1 14.510697719 12.0707948172 1.57829730989
1682 1 12.1898037126 13.6776856767 2.0903400489
1874 1 14.377999939 14.5264539738 1.63125039245
1684 1 15.9610753813 13.8545728495 3.32566088497
1857 2 16.45675207 15.2776534807 1.17482919118
1833 1 16.9257801045 12.9279828859 1.22405882994
1855 2 18.5325101793 13.7258192345 3.08419955202
1681 1 20.8731497296 14.8824309921 3.36852751814
3030 1 20.8858941628 12.4397105943 3.55278226984
2016 1 22.2689118523 13.4519381891 1.79767422291
3194 2 20.5297711617 15.1845923102 1.09620377092
3028 1 26.7856194384 14.2555161488 2.51925421536
3029 1 24.5430699082 12.5164410635 2.03206522263
3034 1 25.9826324323 13.5362340489 0.351607736412
3220 1 24.4304333804 14.815251689 1.68347186723
3032 1 30.4668139799 14.2960132913 1.2569350645
3033 1 28.2327709112 12.6755220969 0.798120764156
3222 1 28.2230192215 15.1745304649 0.826295218297
3049 1 29.0129830745 13.4735953968 3.03536820163
3048 1 31.2728566688 12.6281112883 3.46853916021
4374 1 32.7251738761 13.4453170148 1.6883638835
3238 1 31.2192518295 15.1124013016 3.46450189996
4564 1 34.9007323152 15.0549286176 2.09636700436
4373 1 34.9748107592 12.5755968636 2.11121452606
4372 1 37.1216890885 14.1527179374 2.49828311613
4378 1 36.4122943117 13.3852633246 0.302567743177
4566 1 38.5636287093 15.0156723983 0.794942737122
4377 1 38.6411498289 12.5388021004 0.756982694011
339 1 40.6883372608 14.0937968395 1.12515695529
4393 1 39.379231751 13.3122499972 2.99605124214
4392 1 41.7260483364 12.6158389498 3.210825955
349 1 41.6068844757 15.0855734022 3.54946034274
4562 1 39.3715521758 15.7992593987 2.9621560099
4703 1 1.62370823734 15.9207913343 2.28135788539
710 1 0.987721953429 18.796647275 2.92792678212
4694 2 0.242145223963 17.3453317352 1.20545011
509 2 3.99265519882 16.6758574021 2.09093156849
508 1 5.34228585151 18.5787780872 3.48828218809
512 1 6.07484631591 17.8248917421 1.27593402287
700 1 7.67261852003 19.4232438918 3.05983797608
511 1 7.65852106804 16.9729182156 3.01404336517
529 1 5.48115567412 16.0611272112 3.60608155814
516 1 8.38110896925 16.1425366397 0.81696875938
505 1 8.38985555795 18.6181286131 0.830698667944
514 1 9.92878567548 17.7974812451 2.55680948353
1851 1 10.6595226463 16.9750683939 0.352643464145
2036 1 10.6760743479 19.4572694834 0.358835569336
1850 1 12.1947412186 18.6516553789 2.09545449011
1853 1 14.4372615636 17.026142431 1.60724494233
1867 1 12.1827223983 16.1680204223 2.08469927374
2042 1 14.4858943274 19.4991728511 1.64430758192
1849 1 18.7122404972 16.4016332025 0.564037043101
1852 1 15.9830766316 18.6914805702 3.38650717645
1873 1 15.8300716426 16.2849720989 3.38697406529
1856 1 16.7405929181 17.8470426963 1.17434906035
2044 2 18.0365693012 17.0573290157 3.06883079213
2023 1 18.3066454449 19.3414569948 2.88316645392
3026 1 19.1329622559 18.6781390991 0.293267671502
3037 1 22.4465368392 16.034415278 1.85056066921
3198 1 22.4882237697 18.3857295114 1.96496084292
3209 1 20.3025670885 17.4783155639 2.18251874923
3203 1 26.0500151946 16.0042773623 0.284219671369
3196 1 26.4089512376 19.2237111281 2.71867197392
3197 2 24.5795773658 17.3299521221 1.6843673181
3202 1 26.0114801128 18.4500806762 0.255727692188
3219 1 26.7080441461 16.769478936 2.56813010983
3218 1 28.9551501311 15.9607653324 3.0346264325
3200 1 30.3112863236 19.2566038215 1.29929399313
3201 1 28.1897551831 17.6831234152 0.833049676213
3217 1 28.77433915 18.4170143576 3.08918876876
3221 1 30.4153829227 16.778368863 1.26146376025
4543 1 32.6682573361 15.9279217902 1.68391887197
4542 1 32.6296434483 18.4108431297 1.70792311251
3216 1 31.1295416183 17.5946260126 3.46476300091
4541 1 34.892485159 17.5433513172 2.12507606177
4547 1 36.3739674856 15.870870282 0.336741197551
4540 1 37.1801324747 19.1402891284 2.59542960588
4546 1 36.4364977151 18.3426017033 0.381307502528
4563 1 37.1392364949 16.6631856602 2.52748399098
4545 1 38.7288327874 17.4910828784 0.815170891802
4544 1 41.083331557 19.108739089 1.49845571665
4565 1 40.8984210196 16.5249163827 1.32843988612
4561 1 39.4345354018 18.282356785 3.0343072254
4560 1 41.6781667959 17.5119060497 3.46053920341
4750 1 0.706751212886 21.0032073826 1.33949941228
860 1 0.531997941756 23.2603189514 0.367361020494
4728 1 1.12580640764 21.4762499181 3.65046762243
835 1 2.82480839877 22.9323819425 0.156269710612
691 1 1.95135085442 23.5545833257 2.2703247982
690 1 3.23825018707 20.284040858 3.63413917016
698 2 4.21470751348 19.8040905254 1.57227200377
677 1 4.11223631773 22.0834746833 1.93007017088
680 1 6.34823725371 22.7996234356 1.3497078957
681 1 6.32278361577 20.3233782815 1.25436140019
697 1 5.52624886234 21.0680634709 3.56085224768
676 1 5.51801708191 23.5696761694 3.5454039006
679 1 7.76932877523 21.8986002653 3.04853646574
682 1 10.0067115093 22.7626236184 2.59379941523
683 1 9.95119305318 20.2748826258 2.58090488676
684 1 8.51183445373 21.1166934178 0.810760224072
673 1 8.54167734079 23.6020609836 0.844185653051
2019 1 10.7368110451 21.9524450646 0.367189832223
2021 1 14.4941227916 21.9923285164 1.68736685134
2035 1 12.2181726627 21.1346559238 2.12246278612
2018 1 12.2479574572 23.625252613 2.1420668304
2025 1 16.8011521415 20.2952309398 1.20835616277
2024 1 16.7619014762 22.7501009549 1.21431976817
2041 1 16.0205346001 21.1495397592 3.37519551552
1854 1 18.7048996553 21.6881978018 2.72465331158
2212 1 18.9980600214 21.0418183069 0.408356463683
2020 1 15.9042695721 23.7155492998 3.47696097025
3377 1 20.5073058928 19.9569542198 2.10930531049
3367 1 22.9476216306 20.7060763726 1.9566786962
3373 1 20.9380848007 22.2408045905 0.930901002234
3363 1 22.6895959761 23.5117546539 1.84009853925
2043 1 21.2427225615 21.9031174 3.22731859887
3365 1 24.8029386398 22.5423934637 2.00542906214
3371 2 25.144560581 20.5213286167 0.745593648392
3387 2 26.9434349126 21.782128664 2.89789184232
3390 1 27.896129806 20.1672202055 0.86733265416
3369 1 28.2215979606 22.6065730134 0.860148371388
3389 1 30.4094661647 21.7027554372 1.29593800502
3386 1 28.958681951 20.8469746113 3.05721344422
3385 1 28.9881872984 23.3562826485 3.09900287284
4711 1 32.6718205384 20.8756316366 1.74042030589
4710 1 32.6970015963 23.3398838836 1.74367922805
3384 1 31.2104872711 22.5094522673 3.5004172108
3406 1 31.1800145077 20.042022457 3.49655002278
4732 1 34.9257624493 20.012869282 2.16236205591
4709 1 34.9490268729 22.4679310785 2.19861599488
4715 1 36.4369895205 20.8222033209 0.419543770308
4714 1 36.3956015989 23.2991509983 0.431562938019
4731 1 37.2178681886 21.6140891144 2.62065939926
4734 1 38.6930198221 19.9349719845 0.85083501028
4713 1 38.7030222375 22.4086289173 0.899836978637
4733 1 39.4787457987 20.7378712836 2.99034520403
4729 1 39.7012467605 23.1947795304 3.07094874863
675 1 41.0456983922 21.5943304595 1.15275044619
4918 2 42.3986545856 23.0984186644 2.55569262552
703 1 41.7750192654 20.108515161 3.60993874258
686 1 2.19178042074 26.1393306145 2.31666399148
878 1 0.160087757604 25.4692346094 1.76392082894
1004 1 2.36067217134 25.2026666068 0.096063060072
845 1 4.1972543858 26.9549349843 1.76224916021
866 1 4.088044351 24.513505892 1.81231918203
849 1 6.31641533598 25.2675580328 1.29519290881
865 1 5.58391807796 26.0960867399 3.52084521489
868 1 7.77040700663 24.408716082 3.05551831925
847 1 7.79336215042 26.9152630011 3.03904223091
851 1 10.0013601269 25.2555958694 2.60130294826
852 1 8.53489028712 26.0946513202 0.827294099243
2204 1 10.7511642691 24.4414552019 0.393229036149
2187 1 10.7596711601 26.9322937703 0.38443636015
2189 1 14.445172903 26.9494759242 1.70362109988
2203 1 12.219397111 26.1167743857 2.15075284359
2210 1 14.5154866011 24.4836743455 1.68533376767
2017 1 18.9623653908 23.7723678 0.701170075628
2022 2 18.1026796209 23.7883841136 2.87018940292
2193 1 16.8598003352 25.3286759464 1.31664843909
2209 1 15.8734108983 26.2019445672 3.48222167543
2195 2 18.0402871295 27.0515956561 2.88850928988
2352 1 19.377567645 26.2307304855 0.917261828724
3541 1 20.4179547584 24.110474912 2.52822453042
3534 1 21.7908484614 25.9895397276 2.40559000911
3530 1 21.3213664668 24.7085223298 0.222616965603
3540 2 23.2867317738 25.9249047527 0.687857293433
3370 2 26.1591155212 23.7612643251 0.575813386781
3364 1 26.7993763178 24.3137215048 2.68738178094
3539 1 25.844423146 26.0589692505 0.448038081592
3555 1 26.7282930063 26.7714682393 2.63987100093
3556 1 24.5022596441 25.0031513709 2.39903550126
3533 1 24.4524966049 27.5376155286 2.22267291539
3368 1 30.4137301958 24.1589327955 1.30203144044
3554 1 28.9702207925 25.8336764384 3.05360152943
3557 1 30.4942191688 26.6187066192 1.28019994622
3558 1 28.1879941432 25.0804843447 0.847449781647
3537 1 28.2374719271 27.5135557656 0.866530468541
4879 1 32.761101367 25.7859659146 1.68106852443
3552 1 31.2569116055 27.4447003028 3.46836801794
3574 1 31.245592157 24.9851826515 3.46191814128
4877 1 34.950419203 27.4041369188 2.15603600513
4705 1 34.1626080844 24.2051669006 0.00929684295963
4900 2 35.0121147048 24.8669076604 2.2857677633
4708 1 37.2893657435 24.0468673226 2.6037913446
4883 1 36.4119261461 25.7477492156 0.408071116888
4899 1 37.1517200202 26.5389078092 2.58523593319
4881 1 38.6398697362 27.3537330684 0.813032338011
4902 1 38.6516829731 24.879066336 0.783841538308
4712 1 40.8927247417 24.0960536811 1.09432554555
4901 1 40.8604799 26.5469389714 1.22117393203
4898 1 39.3686634392 25.6564557815 2.95166781871
859 1 41.5477103293 27.3740077188 3.3417536456
674 1 41.5377471208 24.9973417094 3.60875220169
1027 1 0.699827808104 28.0239551235 1.5338122927
5207 1 0.523194246692 30.8684451117 1.49257408102
5086 2 0.13453967759 29.277383969 3.1938723203
848 1 6.34530426258 27.7514066069 1.25452692824
1034 2 4.12131010509 29.2314885882 1.28628761111
844 1 5.45876180639 28.5864243052 3.45044902673
1017 1 6.26298090233 30.1868474295 1.26433008766
1033 1 5.55038153237 31.0757118341 3.54037576183
1036 1 7.72950657257 29.4011838882 3.03329817786
1013 1 4.0099575418 31.568638472 1.71674950038
850 1 10.0234418126 27.7465050244 2.59896021915
841 1 8.55720298177 28.5865451214 0.837306054046
1019 1 9.98895790341 30.2223947097 2.58374721567
1020 1 8.50846512977 31.0655312143 0.843950178437
2372 1 10.7910510836 29.3916460152 0.393797393301
2186 1 12.246823924 28.5901968135 2.16054742548
2371 1 12.2331859067 31.0607693534 2.20408714964
2378 1 14.4992781506 29.4002594859 1.75383990296
2516 2 13.0473869498 30.3006825562 0.0916796474678
2192 1 16.691407875 27.8047777831 1.28769099964
2188 1 15.9651300048 28.6021012835 3.51549328043
2377 1 15.9394680155 31.0489916425 3.45726232128
2360 1 16.7229205489 30.2396453285 1.29554274058
2361 1 18.1577763394 29.41920442 3.06697576045
2191 1 19.0227818864 28.6522632417 0.893213100476
2194 1 18.9351728445 31.0384069642 0.717057125659
2211 2 20.8891465699 28.020074603 2.16372495945
2363 1 20.396847342 30.2344915808 2.51462740942
3531 1 22.4735862848 29.4425627385 1.45630227294
2682 1 22.7018943958 31.3586503398 2.80401424655
2342 1 21.2048831556 31.6020409917 0.598677858952
3532 1 26.8305208901 29.2173815517 2.67108871051
3538 1 26.0665926567 28.4814422735 0.481582811076
3707 1 26.0178012659 30.8933652841 0.422191114157
3724 1 24.6498603884 29.9720544974 2.18336037033
3709 1 23.6785300987 31.5859950893 0.341805141908
3536 1 30.4861595018 29.1016612882 1.28475348544
3553 1 29.0206066773 28.3089841214 3.05996228733
3722 1 28.9967910851 30.7760902732 3.06053325724
3726 1 28.2597509312 29.989406432 0.844188145602
3725 1 30.5048379149 31.5774625189 1.28266871229
4878 1 32.7337310522 28.2412508427 1.69963360641
5047 1 32.7397987028 30.7332619857 1.71083221413
3742 1 31.2323832298 29.9281153678 3.47843255074
5068 1 34.9798884128 29.8998726296 2.13408537329
4876 1 37.1648779855 29.0362648604 2.55218265923
4882 1 36.4254510227 28.2386593082 0.392993965368
5051 1 36.4707039861 30.7208052231 0.355337256616
5067 1 37.2139819596 31.5117296733 2.53509913515
5070 1 38.7060038677 29.8240717956 0.776545899014
1010 1 40.8927999491 31.4953300166 1.18740655146
4880 1 41.0134999463 29.0445903094 1.39040821789
4897 1 39.3157577327 28.1312311267 2.98418832825
5066 2 39.3175970914 30.5866136342 2.86241699078
5048 2 2.03437143691 32.4546203942 2.12461061232
1178 2 0.351903777477 34.9279668188 1.43298856217
1202 1 3.92403123231 34.0710485804 1.71049481438
1016 2 6.11143615087 32.5407113084 1.20936109104
1185 1 6.19366064739 35.0321129491 1.34171959492
1025 1 5.41570642828 33.4612450619 3.48868732852
1204 2 7.7107200523 34.3140972771 3.24000017478
1015 1 7.73061368537 31.871073972 3.00729208273
2355 1 10.7663140585 31.8306309725 0.42742689716
1009 1 8.45839967025 33.5466533311 0.913677493147
1018 1 9.97056193378 32.6970474817 2.58751970027
1187 1 9.91606027276 35.1461228597 2.52224941033
2540 2 10.861690514 34.2403308755 0.380740033011
2357 1 14.5024102069 31.8913304349 1.74469785828
2354 1 12.2364512009 33.5180237916 2.15923189828
2546 1 14.5418585998 34.3315270826 1.73059638601
2358 1 18.3081973555 31.7388712695 3.05807072574
2688 1 16.8597905684 32.6908179328 1.34355892327
2529 1 16.9257015617 35.0856512274 1.36592765601
2527 1 18.2754964455 34.1699958605 3.24804230779
2356 1 15.9625039262 33.4850832246 3.47819136102
2673 1 19.5282610116 33.437293421 1.24214474218
2362 1 20.6391530633 32.4999736621 3.49194328802
2531 1 22.2299289226 33.4166772875 1.76123754771
2532 1 20.6417085696 34.94384685 3.16129168967
3723 2 26.8336510417 31.6648084008 2.45278531629
3700 1 26.7702431526 34.1446468417 2.65245792619
3701 1 24.6486373282 32.5726860169 2.29013601008
3706 1 26.0809132991 33.3638628844 0.506475278829
3892 1 24.4775603178 34.9540124586 2.18467703906
3704 1 30.4839917085 34.0564386563 1.27370133441
3705 1 28.3072410891 32.4672726104 0.826621695434
3721 1 28.9870342093 33.2376859689 3.05378677939
3894 1 28.2196477609 34.9292668476 0.838564456516
5046 1 32.7426133095 33.211233336 1.70640813967
3910 1 31.2691765754 34.8668470014 3.4746058174
3720 1 31.2434066345 32.4003334907 3.4821836411
5045 1 34.9821209757 32.3574940914 2.15652064538
5236 1 35.0411979098 34.8239936432 2.12983892386
5044 1 37.3231140389 33.9579348921 2.55330941637
5050 2 36.4275155054 33.2516934802 0.450728129524
5238 1 38.8232090908 34.7793790135 0.769673661591
5049 1 38.7044650444 32.3233557068 0.737817045442
5065 1 39.5468027229 33.0446202333 2.94399497198
5237 1 41.0409080085 33.8793595165 1.18397284116
5254 1 41.86022392 34.6805974194 3.41955604259
5234 1 39.586254535 35.5030063234 2.95830756683
5064 2 41.7940757444 32.3327808545 3.27962725902
26 1 3.80065935318 39.2862684217 1.82707103636
1339 2 2.26738085636 37.3195967989 0.94082457462
1181 1 4.05091022974 36.5224652186 1.83336085998
1201 1 5.46379711686 35.9001309661 3.53009100824
1184 1 6.14911371423 37.539924525 1.29146450644
1180 1 5.34517689704 38.3739645277 3.47620266574
28 1 7.64473311991 39.211403724 3.0104922995
1183 1 7.67502812069 36.7607525779 3.01604319468
1188 2 8.36692451657 36.1192087171 0.76315910517
1177 1 8.37737809199 38.4715138586 0.784069499071
1186 1 9.91174247135 37.5939338222 2.53739085608
2523 1 10.7187105367 36.7590267011 0.398503607511
1364 1 10.7001683866 39.2229794214 0.403116907287
1370 1 14.529495755 39.2346563368 1.74000183004
2539 1 12.206581588 35.9601582564 2.14032057629
2522 1 12.2157894851 38.4132697355 2.15652331584
2525 1 14.5489568037 36.7672712184 1.75937062682
2683 1 13.0200554381 37.5837091222 0.0067823715216
1372 1 18.2135926112 36.540173631 2.98040607192
2528 1 16.8851296029 37.5323485435 1.28028581544
2716 1 19.3128808543 38.1446065393 1.11982607375
2545 1 15.9764867199 35.8569793351 3.54887844996
2521 1 19.3729149121 35.7554411421 1.07436038742
2524 1 15.9368053726 38.2960033497 3.41181526147
1351 1 18.4055892687 38.8435020098 3.45673707595
3702 1 22.2783343195 35.7724561839 1.66455054494
2530 1 20.6284647798 37.2917691472 3.03495405687
3865 1 22.2332083385 38.303803932 1.64869730857
3875 1 25.9367781947 35.78311388 0.386027540775
3869 1 24.4477599913 37.3893551711 2.09833533041
3874 1 25.9792290557 38.218129843 0.417839532749
3891 1 26.7376370581 36.5777569136 2.58817604484
3885 1 26.7392393351 39.0525480016 2.57306441725
3890 1 28.9987491278 35.7113397247 3.04291625838
3872 1 30.5170129301 38.9937879791 1.25731544739
3873 1 28.2387310072 37.3770928926 0.818409925544
3889 1 29.0093321841 38.1841957634 3.02330598584
3893 1 30.5052115231 36.5250068619 1.26851748439
5215 1 32.7749880552 35.6756515205 1.69936948212
5214 1 32.7851180532 38.1438016544 1.69496010587
3888 1 31.2784275936 37.3350769625 3.46681893078
5219 1 36.5509553047 35.6562340114 0.355079641041
5213 1 35.0527001943 37.2843398796 2.12620674519
5212 1 37.3646837725 38.8855307004 2.56705343263
5218 1 36.5401232372 38.1084981077 0.367295224189
5235 1 37.3282276234 36.4186603532 2.54855595428
5217 1 38.8018324072 37.2645458168 0.812362254536
20 2 42.269546737 37.9859613833 2.30945353039
4078 1 40.9288234656 39.1035094829 1.04955929501
5233 1 39.7499678974 38.0235579399 2.98900107326
1179 1 41.0826900985 36.3741003601 1.26351465549
18 1 3.25806235962 0.605074775392 4.48136605182
14 1 0.970759312927 3.81527407909 3.9827816698
37 1 2.64676541913 3.04236265988 5.58779810732
32 1 0.889785386503 1.38719445367 4.85671849238
1206 2 1.52719589098 1.95347628475 7.14591735223
16 1 4.82576773929 2.10427357776 5.56545494679
23 1 6.98737012782 2.95671585636 5.19022709727
24 1 6.96052445525 0.484962170199 5.2130686743
15 1 6.16240071236 3.70828089094 7.39377995026
22 1 8.47623359886 2.13438352818 6.9500395568
27 1 9.21759778286 1.31994939567 4.76943980274
1375 1 10.7250771786 2.98599093396 6.53526058459
1376 1 10.709737516 0.515719500341 6.51759474092
6 1 9.22004390819 3.79348878639 4.76517422495
1358 1 11.4703355584 2.17222761622 4.3404375765
1361 1 13.7627978405 2.96438227162 3.93723819667
1362 1 13.7457666855 0.470028293065 3.96569623334
1360 1 15.1229858084 2.09870193268 5.74755367141
1381 1 12.9321481059 1.3468824339 6.08741611231
1357 1 12.9397979852 3.81567616144 6.10524609845
1348 1 16.1542824652 3.62489023237 3.77718418579
1359 2 17.2330904655 1.59222352736 5.36327162664
1368 1 19.170668188 2.07235723 7.00819317584
1554 1 16.9116616467 3.58026483536 6.73649313093
1367 1 18.7709327303 3.26942328137 4.9863169003
1371 1 19.5417199742 0.825779781646 5.07570059397
1354 1 22.9046729013 1.90391293029 3.80279216184
2691 1 21.2951053399 3.49966769212 5.82082596616
2706 1 21.7049940449 1.09031043552 5.85073597748
2711 2 24.0509274742 0.207865709509 6.01677753639
2731 1 23.9159237798 2.65059881142 5.85143312715
2695 1 25.2848278732 1.13579847246 4.26967203804
2730 1 26.0894679162 1.89407980505 6.53235038412
2704 1 25.2725105294 3.60306998134 4.27581719817
2733 1 27.5628954018 0.279779169576 4.75801033872
2708 1 27.5321251194 2.74208751715 4.76503652315
2732 1 29.7919755852 1.90025045721 5.21701253434
2729 1 28.3099228753 1.06758062877 6.98735917344
2728 1 28.2944871923 3.54458830639 6.97942201114
4055 1 33.5529221763 1.86852778207 3.89535030977
4048 1 34.3054032731 2.6879511762 6.09872474711
4050 1 32.0495148929 1.05872355923 5.65733083321
4075 1 34.3053722552 0.214587637075 6.08880734469
4049 1 32.0501381618 3.53120312926 5.66387600591
4052 1 38.0700767728 2.62942774693 4.74327919185
4053 1 35.8090969342 3.48671125731 4.33906216274
4054 1 35.8144652798 1.01328845227 4.32071549584
4074 1 36.5591746118 1.83989223212 6.52126327218
4077 1 38.0747044724 0.162131391585 4.73919722383
4072 1 38.7944954714 3.45811239118 6.90181349142
4073 1 38.7884239254 0.961250060519 6.93401620862
1208 1 42.6320317394 3.26694499874 6.13763784001
4076 1 40.3517448247 1.78523584058 5.24582133282
5247 1 41.0231486334 0.134134689318 7.39751135009
206 1 1.29147024362 6.48034185261 3.71825498842
392 1 3.19493508152 5.03038870767 3.91211544374
13 1 1.76189103132 5.1907513645 5.94281471772
224 1 2.76029158327 7.1761435416 5.75072442215
200 1 0.139722441897 7.48292726456 6.00885158099
211 1 4.62306716229 4.55107850106 5.68812890118
184 1 4.95319908398 6.91627336752 5.52786406859
192 1 6.92912313115 5.39356155078 5.19390615953
191 1 7.04333034838 7.8655940225 5.20245319123
190 1 8.45767770742 7.0294510293 6.96109700419
195 1 9.21940743006 6.25929903225 4.76749354904
213 1 8.45735816512 4.57702805869 6.95469858268
1526 1 11.5131936983 7.12674076381 4.34644313003
1544 1 10.7318713619 5.43553760661 6.55050094241
1550 1 11.4605189308 4.64414730293 4.34809441929
1543 1 10.683235285 7.90565774404 6.52899422069
1530 1 13.7230253036 5.46983071718 3.9169026837
1549 1 12.9713753971 6.27468087033 6.09496260772
1555 2 15.0873482424 4.59875776096 5.55852786703
1528 1 15.2861376012 7.02503380495 5.84781500957
1536 1 17.5465929646 5.3106634504 5.15218534734
1350 1 19.3784369342 4.59752731659 6.86734183126
1535 2 17.4168569985 7.64737530276 5.36460035196
1522 1 19.5051824143 6.86205881893 5.46288792783
1523 1 20.3091459933 5.07583234882 4.12572995469
2874 1 21.5872945308 6.0283495935 6.00851474357
2879 1 22.9437612835 6.73499062337 4.0942637496
2873 1 22.9079348081 4.28837213498 4.0642037908
2899 1 23.7313199574 5.11412843821 6.22716569274
2878 1 25.22056098 6.00353325527 4.38045818891
2898 1 26.0190754999 6.81195575716 6.57016066548
2703 1 26.0425986684 4.37064878947 6.50187973771
2872 1 23.7504796697 7.64566410861 6.14577963508
2901 1 27.5342640847 5.20596729658 4.78204609975
2707 1 29.7937031323 4.37067981469 5.22307778034