ITEM: TIMESTEP
46000
ITEM: NUMBER OF ATOMS
5376
ITEM: BOX BOUNDS pp pp pp
0.0 42.7297273569
0.0 39.5600404449
0.0 37.0050293879
ITEM: ATOMS id type x y z
5216 1 1.3618080409 1.71029409528 2.30327077673
4246 1 0.575132084743 3.81300169758 1.33106407073
163 2 2.45300437308 2.75881898875 0.236385895803
5 1 3.84634806906 1.8532234053 1.80321515859
8 1 6.08886434933 2.74448519839 1.32610090898
9 1 5.96380100029 0.256443589724 1.37724866249
25 1 5.20448990223 1.0216452633 3.60175047004
4 1 5.43061521856 3.55232549176 3.62158867977
7 1 7.48589522464 1.90233299746 3.11631580186
10 1 9.76793482538 2.7555222901 2.65054296437
11 1 9.7093230728 0.282035357138 2.64251936333
12 1 8.24120787277 1.09732229498 0.901152395108
1347 1 10.4821715789 1.97614721241 0.408469753716
1 1 8.34493433463 3.57412966195 0.90624669606
1349 1 14.167262044 1.98506393679 1.75976227147
1363 1 11.9481158816 1.14873336385 2.18907541273
1346 1 12.0030919447 3.63405044836 2.18248302906
1369 1 15.7710532932 1.23846744618 3.45665798825
1352 1 16.4036203662 2.7816310752 1.45500131669
1353 1 16.356932182 0.378107639306 1.29037561531
1355 1 18.5306255613 3.65131840502 1.11974571877
1371 1 18.1403814632 1.94137459992 3.11710365809
2716 1 18.51706098 1.08628897495 0.722616679762
1348 1 15.7647341879 3.68396395484 3.59880720516
1513 1 20.7658671629 3.78178279669 0.449173500338
2710 1 21.8795019909 2.16165631052 1.91578221134
3878 2 19.9939153585 0.439966039732 2.38088695595
2863 2 20.2499403199 3.45946385736 2.96059378827
2694 1 24.392368452 2.81533530704 2.30924858195
2699 1 26.3937950509 1.35237596749 0.40216032738
2698 1 25.9085703561 3.69039149858 0.374105730639
3868 1 26.8264368822 2.08748760582 2.61541561702
2709 2 24.9606615627 0.351666899966 2.20206835564
2693 1 24.1398136329 1.29309369169 0.280208675276
2697 1 28.3161512846 2.87612384434 0.788004881797
2714 1 29.0857502505 1.18692908073 3.00796827945
2717 1 30.589888048 1.98841828582 1.23057055053
2718 1 28.4632296998 0.384641551655 0.797604439643
2713 1 29.0828436083 3.66335371435 2.98740515791
4039 1 32.8676568323 1.13261900089 1.6722503802
4038 1 32.8423854875 3.60839314455 1.65186716863
2734 1 31.3570237412 0.332746370503 3.43901723314
2712 1 31.3473423893 2.80882409197 3.42215547634
4060 1 35.1523780165 0.275522411802 2.10693196614
4037 1 35.1312605238 2.75546779458 2.09137826705
4043 1 36.6536173777 1.07475055486 0.349804101063
4059 1 37.429935523 1.87976281363 2.53073590591
4042 1 36.6311305264 3.53663334285 0.334107446729
4041 1 38.9355862057 2.67127370573 0.773835517288
4062 1 38.9430590994 0.21678522385 0.796461529367
4058 1 39.8111821807 0.981320725667 3.02835848682
4057 1 39.5710780609 3.46645701172 2.95973781656
4196 1 41.4139929748 1.67806109585 1.32083746933
17 1 41.8698850199 2.8900301096 3.29379107188
4056 1 42.2697925612 0.0217610623195 3.60986827019
14 1 1.26290506775 3.96502834719 3.60357986794
193 2 2.25954088986 5.46312342763 2.12049675725
187 1 0.327872761075 6.18751783305 1.55884634756
331 1 2.30515489508 7.48725017302 0.314629191877
173 1 4.05123885559 6.78366494576 1.88670228428
194 1 4.05060927449 4.25293949575 1.8243876646
177 1 6.16100681538 5.23328496946 1.40031028467
176 1 6.18961939066 7.70900852919 1.38510668215
196 1 7.62978735317 4.39411394595 3.13245733079
175 1 7.67604609612 6.88604974612 3.16705016888
172 1 5.48965578513 6.03290544277 3.67033806459
179 1 9.85020326224 5.25062644072 2.66537829716
180 1 8.39399264486 6.06698679923 0.915147405374
1532 1 10.562623648 4.46317910979 0.421729357591
1515 1 10.618295136 6.95550103652 0.433493335496
178 1 9.92122595339 7.72698673662 2.70661176664
1517 1 14.2684754642 6.92526513378 1.77942354806
1531 1 12.0670862341 6.11349697549 2.21123474255
1538 1 14.2639097999 4.44318078144 1.77486242853
1540 1 18.019727061 4.46426478885 3.30578669308
1519 1 16.5552681311 5.18072412184 1.3564068641
1839 1 18.0749925062 6.94026457343 2.98598810635
1524 1 18.7058787233 6.06874907022 0.790258172225
1521 2 16.4250115022 7.49453375977 1.3301805141
1537 1 15.7931100167 6.15093739347 3.51372514783
2689 1 22.4771672826 4.61693371288 1.7104661234
2868 1 22.2890452821 6.73462513872 2.76250475213
2838 2 20.9562722256 6.22827467342 0.480172284562
1523 1 20.1842275547 5.64383093286 2.67010407389
2857 1 23.2470270148 7.20814829489 0.658209717558
2692 1 26.8465262761 4.53008059983 2.50448824887
2867 1 26.0506363624 6.38329926503 0.210331498904
2883 1 26.7568827084 6.99589705654 2.53612466958
2884 1 24.7097822591 5.49615107335 2.11488556047
2696 1 30.5565373202 4.47149726292 1.21181168289
2882 1 29.0270476424 6.11323776488 2.96058652618
2885 1 30.5151228465 6.93649841917 1.20325201293
2886 1 28.2567544421 5.3407990621 0.741649656832
2865 1 28.2061193496 7.79628733757 0.733558671007
4207 1 32.7952331425 6.08284230143 1.63757050624
2880 1 31.293501435 7.75005229115 3.40317371814
2902 1 31.3077452526 5.28760464344 3.40859994257
4205 1 35.0016675586 7.72369766203 2.05483843357
4228 1 35.0589673809 5.2299670298 2.0728244699
4036 1 37.321453658 4.36243919453 2.51440411756
4211 2 36.5329846273 6.03522711225 0.291641813856
4227 1 37.2131151009 6.86576933427 2.46291515032
4230 1 38.7798107397 5.17410622998 0.744345791574
4209 1 38.6867298776 7.66126990806 0.665345061251
4061 1 40.9969749761 4.31609170739 1.24956343869
4226 1 39.347737284 5.93810485862 2.94891044787
4397 1 40.8031883279 6.81183435616 1.28246151953
182 2 42.4073065666 7.74349910574 3.00535226094
31 1 41.6440573771 5.31702086942 3.38904904467
4229 1 0.867481061774 8.85872550422 1.4702021551
374 1 0.41684460632 11.2636774093 1.56821684134
181 2 2.16450174321 10.4204583923 2.56339210083
355 1 3.87786689134 9.21187828851 1.91331804461
341 1 4.06709240724 11.7402562565 1.84314478123
361 1 5.45973973102 8.50952654838 3.66415044003
345 1 6.17142119429 10.1462780404 1.47448092448
364 1 7.70810188399 9.34071469929 3.1879405323
353 1 5.60322439295 10.9369503499 3.66486280033
343 1 7.77529897947 11.8185729707 3.1384872577
169 1 8.4667154291 8.53267129373 0.965559313438
347 1 9.94447669369 10.2021524425 2.69678948298
348 1 8.4491909154 11.00299868 0.931143977639
1700 1 10.6887453868 9.42609321138 0.458797610582
1514 1 12.1485186819 8.58431744311 2.23692536665
1699 1 12.1685891101 11.065258983 2.24775146672
1706 1 14.3703155358 9.38843625543 1.79101372088
1844 1 12.9771703071 10.2824755789 0.0275363007703
1689 1 16.5674676424 10.1283659348 1.50947780124
1848 2 18.677541809 9.74012748986 1.12873846974
1516 1 15.890881902 8.62664667906 3.54641744093
1705 1 15.9396278926 11.1128505313 3.58555673691
1708 1 18.1798645193 9.52064657563 3.43673559061
1520 1 20.2474190316 8.04061695266 1.47549635713
1692 1 20.2579088764 10.1092615089 2.67206485516
3031 1 22.4522911946 11.3293746408 1.29317610645
2859 1 22.4084751772 9.14100514601 2.18043308684
3047 1 23.1466124365 11.5990216612 3.57843337615
2010 1 20.6717873639 10.3393860503 0.262023921613
2861 1 24.6300942684 8.01821083287 2.28220254002
2860 1 26.8113646221 9.45563438516 2.55311624162
2866 1 25.8739689174 8.69972573326 0.215267198588
3035 1 26.0952927092 11.1605698897 0.321192861623
3052 1 24.6313339936 10.3814291613 2.05990499085
2864 1 30.522011666 9.40641684977 1.20353000482
2881 2 29.0838271353 8.51917262269 2.88750719933
3054 1 28.2673438744 10.2273018415 0.771768678403
3050 1 28.9659190162 11.0344610358 2.99437496959
3053 1 30.4574976997 11.8535107656 1.21162095056
4206 1 32.7617219495 8.55443428446 1.62998130031
4375 1 32.7234546831 11.0301544398 1.62369740083
3070 1 31.2235887374 10.2158576699 3.40354658216
4396 1 34.9808537224 10.2000439319 2.0337330897
4204 1 37.1931954529 9.35238817128 2.42958155338
4210 1 36.4659322118 8.53088717199 0.253346993437
4379 1 36.5390273518 10.9946302123 0.277303606806
4395 1 37.2700156634 11.8119560067 2.45373774637
4398 1 38.8375955017 10.1402076045 0.65170446671
4225 2 39.2975129034 8.52158532647 2.73838705415
4394 1 39.5024809853 10.869008823 2.83502309688
4208 1 41.1014909816 9.2498775859 1.22727504622
4224 2 41.6813223612 11.7368510068 3.40681556512
542 1 40.9572487835 11.7750121052 1.02676105372
4582 1 2.1541721721 12.9353273677 2.59925271711
170 1 2.30460171105 12.9919152907 0.190864815666
4376 1 1.90515459811 15.0500659683 1.62344886822
530 1 4.09772518677 14.198750088 1.74905464015
344 1 6.26488314494 12.630561316 1.39267375771
513 1 6.2921786635 15.1064159244 1.40299905602
340 1 5.41683148956 13.3558717072 3.59370715251
532 1 7.7583357061 14.2762498164 3.14200343138
1683 1 10.6976911406 11.8733957222 0.491115293894
337 1 8.50194198715 13.4843464195 0.951851898486
346 1 10.0091297147 12.6811712661 2.69977773462
515 1 10.0143118289 15.1510513936 2.7156409397
1868 2 10.7410002292 14.3589356899 0.511603985202
1685 1 14.3812604404 11.8739126598 1.81534211577
1682 1 12.2668250169 13.5526921353 2.25250081556
1874 1 14.5329835984 14.3986417864 1.78935362014
1843 1 12.9333174032 12.7407747631 0.0458834152749
2012 1 12.986273741 15.2142010964 0.0520539496566
1876 1 18.8236285232 11.9845612012 0.747235075454
1688 1 18.1544959767 12.063126038 3.04509663528
1833 2 16.4462130525 12.6056083853 1.39777964633
1855 2 17.9610192385 14.5204797227 3.44638659461
3349 1 19.6465602893 14.0993285493 1.67730031609
1681 1 22.3671580883 13.8541505987 2.65015014815
3030 1 20.7606922419 12.2487252547 2.66842719938
3175 2 23.2199935467 14.2765080819 0.623386103594
2016 1 21.1768620557 12.9942736283 0.122058530223
3051 1 26.7435364404 11.9292121607 2.53800857219
3028 1 26.7210129733 14.3116163734 2.61680146503
3029 1 24.5498704868 12.7704497948 2.05772372408
3034 1 25.7845744079 13.7279208514 0.255347008388
3220 1 24.5181971658 15.2497274844 2.34290424144
3032 1 30.5132491854 14.3258122568 1.21565456072
3033 1 28.2033926186 12.6818518822 0.762809393005
3222 1 28.3175993375 15.123506964 0.835950918257
3049 1 28.9853608349 13.504408974 2.97879066962
3048 1 31.2297485117 12.67666996 3.41049014173
4374 1 32.749345493 13.504715743 1.63929237409
3238 1 31.2554676844 15.1491219268 3.42611924025
4373 1 35.0107473041 12.6740721083 2.04884268332
4564 1 35.0040033421 15.1606613098 2.06369162768
4372 1 37.2696271573 14.2783103157 2.51863832349
4378 1 36.5332123446 13.4961223108 0.290175509302
4377 1 38.7728005481 12.6209884108 0.713653222451
4566 1 38.6243223041 15.0948518637 0.695292668626
4392 1 42.5810459002 13.6212910238 1.91971668715
339 2 40.689634168 14.3248967293 0.921441259317
4393 1 39.6488884533 13.3610736235 2.94960317971
4562 1 39.4301311251 15.8209359632 2.90224701004
4703 1 2.10026817175 17.2942291996 2.83172206266
4544 1 0.451928186413 18.5824506034 1.2102373148
4565 2 0.197055849166 16.3558579321 1.85540738697
4750 1 1.6631371903 19.7706188384 2.80909596431
667 2 2.60766360581 17.6165188655 0.0683610212058
529 1 5.50852700721 15.8815967248 3.60519793415
698 1 3.92509182088 19.035326516 1.87230549795
509 1 4.05619104208 16.5794665169 1.77263016977
508 1 5.41507690364 18.3336498032 3.67034891558
512 1 6.2482152704 17.5833648458 1.42945711414
700 1 7.66873296402 19.2418859613 3.21458643142
511 1 7.74020175102 16.7661417807 3.18757961653
516 1 8.52234063432 15.9642549869 0.977704110554
505 1 8.48705658224 18.4416074227 1.00289891915
514 1 9.99351487244 17.6283880342 2.7370132725
1851 1 10.7460357101 16.8421683838 0.527711936378
2036 1 10.7280676955 19.308170949 0.534251108107
1850 1 12.2438981597 18.5045521399 2.27450447223
1853 1 14.43683634 16.9548231964 1.80664687333
1867 1 12.2603434852 16.0183784025 2.26394849107
2042 1 14.5050616221 19.4146090168 1.82977991647
2011 1 12.9702215155 17.6848192105 0.0535955370875
1857 2 16.4446808187 15.9418170022 1.36703850584
1852 1 15.9743755159 18.6599815339 3.62089738896
1873 1 15.9581199929 16.156982427 3.59677700778
1856 1 16.6863726514 18.0953087975 1.34691779602
2044 1 18.2385915916 16.9987710534 2.90975246036
1849 1 18.9680220332 18.6696760808 0.578232920082
2023 1 18.2347901524 19.4813393983 3.08570317999
1859 2 20.6764096688 15.8415080404 2.75521852059
3194 1 19.9388798453 16.4202469802 0.637492238022
3037 1 22.5118283656 16.4349159255 1.58461148658
3198 1 22.7034793427 18.8481708678 1.73153950341
3209 1 20.3693987966 18.0896574477 2.33862040696
3203 2 26.263565481 15.8924496776 0.687571810086
3199 1 23.8836596372 17.3565910646 3.36857407535
3197 1 25.0138927665 17.6300226047 1.47744380892
3219 1 26.743465228 16.7428805763 2.90713745559
3202 2 26.2147535149 19.231353544 0.557268023635
3196 1 26.8397234056 19.3401769812 2.74200225124
3218 1 29.0241462469 15.974962449 3.06908270592
3200 1 30.4611894521 19.299927906 1.23262675466
3201 1 28.0751203457 17.6336453633 0.848976372191
3217 1 29.0095552234 18.4283967395 3.04771783336
3221 1 30.4116361849 16.826275746 1.22411443438
4543 1 32.7194546539 16.0043536218 1.6427041448
4542 1 32.7367778769 18.4954725961 1.66595238871
3216 1 31.2652395911 17.5985693463 3.42402270241
4541 1 35.019615734 17.6547099233 2.0746980737
4547 1 36.4795665241 16.004016145 0.295419410799
4540 1 37.3469923401 19.2246218003 2.56844679067
4546 1 36.50937385 18.4883750799 0.309660990671
4563 1 37.2905532747 16.7893336973 2.49628759906
4545 1 38.7237177623 17.5818458642 0.694207816641
4561 1 39.8068469292 18.360827014 2.95155754587
651 2 40.8567281513 18.0664090639 0.697759872297
691 1 1.76300464473 22.7232495546 3.02673855032
860 1 0.405030603073 21.2396311016 1.35270798524
4694 1 2.31252184068 19.962201932 0.289780525214
677 1 3.78647080743 21.5515061587 1.96439702357
836 1 2.23152273047 22.346371837 0.306258598505
680 1 6.05370784352 22.5215689795 1.48290973727
681 1 6.14528611996 20.0528457755 1.5064770345
676 1 5.4239313764 23.3003449422 3.6759708989
679 1 7.62454425789 21.7048221923 3.17350219026
682 1 9.89745333883 22.5800205537 2.74899251301
683 1 9.93755813427 20.1078055292 2.74513425963
684 1 8.41563875747 20.9094100697 0.993740174806
673 1 8.37481362001 23.3754690366 1.02714476659
2019 1 10.6809061549 21.7829397397 0.54634847327
2021 1 14.4979482967 21.8721972675 1.84559145882
2035 1 12.2091568968 20.9834812495 2.28721332682
2018 1 12.153499369 23.4503628434 2.30317312691
2179 1 12.9446036656 22.6623022166 0.101092187006
2180 1 12.9777881717 20.1849252961 0.0766659585875
3026 1 19.1713448855 21.3556475022 1.19162108138
2025 1 16.8078938222 20.398902339 1.37368338002
2024 1 16.8414480116 22.7659129151 1.44478589593
2041 1 16.0071180812 21.0818866287 3.60673124915
1854 1 18.3235706996 21.9524989544 3.2972324453
2020 1 15.942468151 23.5109989081 3.63540261853
2017 1 19.3015283769 23.7145265057 0.950651210214
2027 2 21.0499332376 20.0418013668 0.776817254778
2212 1 20.6279231648 22.7945059086 3.15509775103
3377 1 20.647275131 20.2567003367 3.21656011336
3363 1 22.6019794236 21.3930084662 2.40064785068
2175 1 21.3657194169 22.2696035888 0.322836802441
3367 1 24.659744279 20.0343669477 2.0976753627
3365 1 24.667766699 22.6807944388 2.1514272987
3387 1 26.8843694653 21.8263456632 2.86217678656
3371 1 26.0357684331 21.4809600987 0.675041609304
3362 1 23.4767508226 21.1665749917 0.183214870582
3361 1 23.9549070705 23.663972063 0.104698408986
3390 1 28.2685244282 20.193123912 0.908866462821
3369 1 28.2721293461 22.6184340368 0.961176035215
3389 1 30.5158076446 21.7900040676 1.29327487599
3386 1 29.0637854496 20.9315773304 3.06482055347
3385 1 29.0517762037 23.418520212 3.08414561981
4711 1 32.7601243236 20.9674790348 1.73005971416
4710 2 32.750681274 23.4919198978 1.57632014851
3384 1 31.370931334 22.5534484729 3.4364944203
3406 2 31.1987589837 20.007948749 3.43309117164
4709 1 35.0487449825 22.5686729311 2.08406464653
4732 1 35.0140281077 20.1192941409 2.11227308151
4715 1 36.4661778327 20.9499098333 0.301578291282
4714 1 36.4825396408 23.3957057225 0.281129294907
4731 1 37.3360238402 21.7171213322 2.46645583455
4734 2 38.5078302913 20.0643800949 0.872730247699
4713 1 38.7364616984 22.561279005 0.674801416953
703 2 42.0177675437 19.7984907849 3.09346184795
4728 1 41.9907847768 22.6010253245 3.32377217326
4733 1 39.7011631259 20.9145395634 2.91851111589
4729 1 39.6096755113 23.3405780827 2.86434804566
675 2 40.9653118736 21.8957592107 1.0146115746
4918 1 0.738007161774 24.0081277237 1.42039270439
686 2 2.41885344953 25.8954958639 1.46700540299
878 1 0.278134758738 26.4410331052 1.37064941801
866 1 3.73457895272 24.0900762083 1.82762014905
4935 1 1.08660434626 25.1338686207 3.63594714828
845 1 4.12335836892 27.2849272091 1.66736722147
849 1 6.08051097383 25.0081271788 1.4642210805
848 1 6.33729507348 27.4439310816 1.43778940511
847 1 7.60541599712 26.6662462456 3.25726009503
868 1 7.60916780796 24.2134707676 3.21842934552
865 1 5.34533552045 25.8584298071 3.627253301
851 1 9.86611822118 25.0616623621 2.76834132845
852 1 8.37540825805 25.8542704343 1.01233290934
2204 1 10.6463524079 24.2566664677 0.55901582837
2187 1 10.6484416019 26.7313453541 0.566861277787
850 1 9.8502470375 27.5190191318 2.77296549643
2189 1 14.3632009466 26.785967437 1.86116509208
2203 1 12.1293304249 25.9201684747 2.31945777839
2210 1 14.4111560846 24.3179268879 1.88239982292
2348 1 12.9210782677 25.1347531649 0.125132218999
2347 1 12.9187782092 27.6174204947 0.11342402935
2022 1 18.1801053334 24.3857175356 3.17473970655
2193 1 16.669064789 25.1213061699 1.39883607292
2209 1 15.8546750095 25.95202302 3.58660337582
2195 1 18.054817216 26.9515753833 3.16036252317
2192 2 16.6234388717 27.3832772242 1.40773813927
2352 1 18.8397490154 26.1478514145 0.939088651107
3530 1 22.0843569861 24.0406923654 1.78008259829
2026 2 20.211403523 25.3094435968 2.67266480129
3708 1 21.1625054125 26.7629404917 0.968249193665
3540 2 23.154038784 25.7572657441 0.732041740731
3556 1 24.1496216346 25.0166016065 2.81800172907
3364 1 26.75189002 24.3865684827 2.61938351833
3539 1 25.6301923492 26.1721894913 0.490827743394
3555 1 26.6943514348 26.8218214171 2.57942458171
3508 2 26.2540745564 23.8687243385 0.424576661232
3368 1 30.4882440408 24.3074366921 1.36713366603
3554 1 28.9784022561 25.8850345895 2.947306703
3557 1 30.5015999815 26.7488736383 1.22926826069
3558 1 28.1716540605 25.1411134826 0.693022096315
3537 1 28.2459006801 27.5734167852 0.821119440055
4879 1 32.7507737293 25.8912737466 1.64851480435
3552 1 31.2680663614 27.5186975415 3.42817929209
3574 1 31.299514844 25.0463130435 3.45968865672
4877 1 35.0175082878 27.4932586067 2.0726918667
4900 1 35.0121520898 25.0159437607 2.06306401092
4708 1 37.3094062549 24.1836926845 2.48945278099
4883 1 36.4587665845 25.8704882586 0.291696459233
4899 1 37.2688506208 26.6565113371 2.51187555934
4881 1 38.6837036219 27.5080479559 0.733233925067
4902 1 38.6795164699 25.0160060392 0.66884511455
4712 1 40.9609521424 24.1752206466 0.923525130695
4901 1 40.7843477425 26.5833841779 1.06510190518
4898 1 39.5003573237 25.8295731729 2.94677915208
859 1 42.0027119432 27.3244582593 3.43138340299
674 2 41.602854803 24.9401447863 2.84880962142
1027 2 2.77955001086 28.8160780154 2.78632331658
5207 1 0.653370726762 28.9758153481 1.57453790823
1034 1 3.29146020216 29.5080076239 0.693937586319
1045 1 1.06606148373 31.1132782778 2.77087008307
1171 1 1.24335743651 31.3922758837 0.492432082699
1017 1 5.98298347892 29.8429827901 1.37672357503
1033 2 5.19703812425 31.0309100921 3.38104003774
844 1 5.28489687274 28.3614584079 3.59301155568
1015 1 7.5123679817 31.5958631461 3.0998770715
1036 2 7.71892901431 29.1264006719 3.02914485577
841 1 8.46550820764 28.3233447216 0.957042675144
1019 1 9.87488526338 30.0028169995 2.69866607702
1020 1 8.33373603485 30.7769121301 0.941630062761
2372 1 10.6671398486 29.2011241002 0.513611716448
2186 1 12.065899321 28.3737226296 2.30949656647
2371 1 12.1150966137 30.8551493456 2.25834731998
2378 2 14.1896954891 29.2231891511 1.97859078944
2516 1 12.8982952038 30.0605428535 0.0884990304772
2188 1 15.8894905981 28.3715663256 3.62647905927
2377 1 15.8036098489 30.7238690633 3.38124431593
2360 2 17.5407396403 30.5537008436 1.63470863919
2358 1 18.4511095895 29.7225991874 3.48089112754
2191 1 18.80353294 28.6309019349 1.01158226217
3534 1 20.2204599764 27.8375711116 2.77817829926
2363 1 19.7442408301 31.2031501623 1.46619832025
3531 1 21.1321266268 29.1553883991 0.686359328999
2682 2 22.2459090648 31.0542532233 2.05243956102
3551 1 22.569952212 28.6005534033 2.67142048449
3533 2 24.7357094821 28.1813530893 1.82658340353
3532 1 26.7718035887 29.3375208963 2.59683038979
3538 1 26.1477973713 28.643749384 0.273374098267
3707 1 26.0827756297 31.0712783072 0.518472080813
3724 1 24.4586227569 30.2674014263 2.43986317623
3536 1 30.5087265539 29.2069533176 1.250750717
3553 1 28.9970868241 28.3727117075 3.01280968189
3722 1 29.0056289696 30.8704299723 3.02062518783
3726 1 28.2634062451 30.0644659414 0.828718915097
4878 1 32.7686630168 28.345905998 1.65170190659
5047 1 32.7874258776 30.8117801461 1.67133215558
3742 1 31.2675618842 29.9926825673 3.44375610937
5068 1 35.0515876621 29.9637978812 2.08476680734
4876 1 37.3225301539 29.1154078677 2.53529869214
4882 1 36.4849182235 28.3553651206 0.298776077498
5051 1 36.5443385319 30.7989683765 0.32052563409
5070 1 38.7959036479 29.944541776 0.777373944417
5067 1 37.3456954331 31.5828919749 2.52613262225
4880 1 40.9856902599 28.8738176695 1.19010533881
4897 1 39.6123396732 28.2528608896 3.03354535223
5066 1 39.5692059003 30.6854543459 2.98489071379
5086 2 41.8039311137 29.7680795658 3.26286964477
1010 1 41.3424833896 31.2516961109 1.34497262479
5048 1 0.565599813642 33.3772641808 1.87575005355
1013 1 3.65424167971 31.8219708545 1.41787120019
1340 1 2.09095874463 33.7450106417 0.0214780887058
1202 1 3.45791960352 34.2302505473 1.92396901953
1190 1 1.45084314287 35.5339025444 3.60467762186
1016 1 6.05387024496 32.3518493526 1.33483481106
1185 1 5.96061130155 34.8261527313 1.08599753865
1204 1 7.45803169394 34.0776672752 3.03788536595
1025 1 5.14449108712 33.3150068912 3.50084212999
2355 1 10.6149854084 31.6573956601 0.487958847679
1009 1 8.28218483027 33.2620858722 0.88051822391
1018 1 9.7634690512 32.4530621502 2.65437141801
1187 1 9.73293573581 34.9199967516 2.63916585526
2540 1 10.544916499 34.1242369022 0.447463001067
2357 1 14.3888398388 31.7363833394 1.79080281787
2354 1 12.0426666837 33.301954619 2.22223265494
2546 1 14.3020241982 34.1147854759 1.82111894578
2515 1 12.8780297434 32.5143996951 0.0372410393725
2684 1 12.7973466861 34.9524759814 0.0255627887073
2356 1 15.8367691155 33.4243482079 3.63406638663
2688 1 17.1570853438 32.798036222 1.67199797951
2529 2 16.3682591119 34.9425033681 1.49733541077
2527 2 19.31372793 33.6080144684 2.37620569702
2531 1 21.8486871813 33.3620658232 1.34723250135
2362 1 20.9587368159 32.4670710482 3.36354419896
2547 1 20.8807136866 34.9778883089 3.4247417735
2673 1 19.6879397157 33.1191901083 0.0299816117916
2532 1 20.0259049339 35.3324993465 1.12796322322
3709 1 23.8165128834 31.6675614034 0.177909504566
3723 1 26.6917857212 31.7526657272 2.72717390446
3700 1 26.8339502268 34.2199153192 2.62772643661
3701 1 24.3350050556 32.605848246 2.37312647275
3706 1 26.0321091535 33.4258354613 0.551553169593
3892 1 24.5605317093 35.0324864008 2.09411803284
3697 1 23.7919712352 34.0070533429 0.0270332043926
3725 1 30.5277624305 31.6657983329 1.2650381381
3704 1 30.5637447855 34.1401880254 1.30176309237
3705 1 28.2810869508 32.5478138537 0.886219266006
3721 1 29.03020935 33.3119933293 3.08204607068
3894 1 28.3474623899 35.0346715378 0.924214951301
5046 1 32.8161766818 33.2801196262 1.68904897215
3910 1 31.3182486425 34.9378786314 3.47466922489
3720 1 31.2870838403 32.4578076426 3.46555500318
5236 1 35.0849366305 34.9058123433 2.10159428416
5045 1 35.0736770313 32.4311498427 2.1019072497
5044 1 37.3154450275 34.0465695616 2.55269798759
5050 1 36.5896752074 33.2617770034 0.358343519553
5238 1 38.8102827366 34.8230919186 0.788900950119
5049 1 38.8494972297 32.357491115 0.745406317437
5065 1 39.5231284896 33.1420341066 3.0380410139
5237 2 40.9540165829 33.701415744 1.30270479994
5254 1 41.8661101664 34.9481632844 3.32137783962
5064 1 41.6438184497 32.3009848446 3.42392037839
5234 1 39.488352102 35.5706820785 3.04918056564
1178 1 1.29438219438 35.7221273793 1.23767297265
1339 1 0.85892176123 39.1231514781 1.59392643191
1181 1 3.67265773783 36.587756471 1.73252545072
26 1 3.61886959 39.0695680354 1.7811265818
1193 1 2.150535132 37.7255071823 3.08919817179
1323 1 2.31343219115 37.609370474 0.037697922959
1201 2 5.45520961812 35.7040249718 3.00159510201
1184 1 5.95534408371 37.3850103968 1.3361908386
1180 1 4.99827309794 38.0875167024 3.650908215
28 1 7.42918085602 38.9897931817 3.12262127079
1183 1 7.53078261748 36.561860681 3.03203288808
1188 1 8.29109067982 35.7279438709 0.829603235469
1177 1 8.21356561421 38.1719614495 0.92878839846
1186 1 9.75914858584 37.3823536919 2.62244120076
2523 1 10.5151283699 36.6029712016 0.417362311209
1364 1 10.4580268379 39.0586139364 0.429595047762
1370 1 14.2062448355 39.0552117292 1.74961188681
2539 1 12.0060810151 35.766446063 2.20818758024
2522 1 11.9737486846 38.2411026856 2.17661857923
2525 1 14.2640241841 36.5997890104 1.8037184949
2545 1 15.81602535 35.8851942753 3.6057660862
2521 2 18.8942066818 37.1546949737 1.53583108299
1372 1 18.1867898602 35.8211412869 3.13250299423
2528 1 16.5356858183 37.4485742722 1.35747035576
2524 1 15.7436251382 38.3087068664 3.51676107992
1351 1 17.9524565663 38.9024426129 2.80166662845
3702 1 22.3696137695 35.785243773 1.52308225709
2530 1 20.620603368 37.4780245843 3.11004448075
3865 2 22.2597384431 38.0597703499 1.76908425559
3875 1 26.0800562884 35.8701440856 0.399022860126
3869 1 24.5817950238 37.4591831212 1.89876452332
3874 1 26.1594842757 38.4571675846 0.371012159294
3891 1 26.8348729841 36.6728240333 2.56786494946
3885 1 26.9797486959 39.1179595945 2.57866454779
3890 1 29.078116122 35.7994129454 3.07755656264
3872 1 30.6383277956 39.063394904 1.24957977265
3873 2 28.3700865363 37.4969414694 0.848642429967
3889 1 29.1513938776 38.2690338427 3.03815167627
3893 1 30.5936409421 36.5996655281 1.27496036973
5215 1 32.8309375175 35.7525040235 1.68842047585
5214 1 32.8716419766 38.2191654846 1.68078973799
3888 1 31.3640288764 37.4101623416 3.45492738027
5213 1 35.124592101 37.3728256296 2.09969484522
5219 1 36.5938172244 35.7144046198 0.340106450124
5212 1 37.4568064078 38.9656683222 2.54263268341
5218 1 36.6477205323 38.1749868607 0.336439918215
5235 1 37.3644297042 36.5201951859 2.52657202741
5217 1 38.9079516267 37.314031257 0.783708091558
5232 2 42.567153492 37.2887029517 2.50870460603
4078 1 41.1378953519 38.8543210052 1.25013460428
5233 1 39.7841840141 38.0362183809 3.01386539364
1179 1 40.9687993983 36.1874920209 1.25771740892
1207 1 2.5945235936 0.333694202448 3.98134270944
186 2 3.32790617269 2.74522724107 3.89294223681
18 1 1.12834973335 0.195574978142 6.18877450646
37 1 2.17418917192 3.13934312829 5.91453465618
32 2 0.50284472275 1.80254073639 4.71499966159
1206 1 0.223681009322 2.13387246098 7.30327177932
16 1 4.39858789711 1.89747658544 5.85540936889
23 1 6.81401531423 2.69218793263 5.35445250595
24 1 6.75291960623 0.249409949074 5.30388759906
22 1 8.31524546909 1.90146468285 7.07671598733
27 1 8.99990377219 1.09839418759 4.85442188467
1375 1 10.560561085 2.77350416035 6.62727099538
1376 1 10.5259492511 0.304516610856 6.58459530588
6 1 9.07857622475 3.57074431958 4.87634006782
1358 1 11.246985343 1.96931974614 4.40112495807
1361 1 13.4703888547 2.85328688 3.9396225849
1362 1 13.5114759067 0.365325675287 3.93936536487
1381 1 12.7461521047 1.17223069508 6.13552274724
1357 1 12.7685807418 3.66894015667 6.17623997249
1360 1 14.9428173494 2.03818101608 5.61743532724
1359 1 17.263671766 0.483785378541 5.05776304605
1554 1 17.1734908905 2.96709629076 5.49298975532
1368 1 18.8375407845 0.832061206313 6.68121998476
1386 1 16.4243777022 1.32712523141 7.28107362125
1367 1 19.4185313819 2.64209270429 5.25220683406
2706 1 21.2849730861 1.09963915208 5.94208557353
1354 2 22.8362990505 1.66326813702 4.07421792084
2691 2 21.4407212515 3.69562116575 6.0757061455
2711 1 23.7610308651 0.407982189544 6.03225885395
2731 1 23.7639798178 2.83306189276 6.0430706869
2695 1 25.2921466314 1.27979525862 4.34532109235
2730 1 26.0532852335 2.04345913741 6.51094527058
2704 1 25.4565097282 3.79323952593 4.34094042765
2733 1 27.5943381143 0.392969739679 4.7903241281
2708 1 27.6100233436 2.8577364143 4.77991846711
2732 1 29.8603298721 2.00384503539 5.19924366521
2729 1 28.3433868427 1.1952867813 6.9687064203
2728 1 28.3847752271 3.66391960806 6.95793988383
2727 1 30.6259270792 2.81350855479 7.39209009962
2751 1 30.6090659303 0.344489036375 7.39716273192
4055 1 33.6194548413 1.95074484997 3.85293328817
4048 1 34.3603040124 2.76601701884 6.03787299435
4050 1 32.1181313121 1.15194134622 5.62768405147
4075 1 34.3794203444 0.294881932125 6.05292094436
4049 1 32.0980385487 3.63249139283 5.6157134847
4052 1 38.1630011806 2.67794340823 4.72335060523
4053 1 35.8585806664 3.56176005169 4.27458930786
4054 1 35.8978380331 1.09111722351 4.28601163958
4074 1 36.6369898376 1.9045393897 6.47421178273
4077 1 38.1824188538 0.245259416544 4.72182767369
4072 1 38.7245542142 3.55717793569 6.89042913688
4073 1 38.9858672134 1.07181064463 6.89343210857
4076 1 40.6835301162 1.86226619415 5.21710905873
4095 1 40.879567649 2.94086678902 7.33463809683
206 1 1.14633207965 6.24624352718 4.23112459597
392 1 3.28960406104 5.21970718573 4.25430010586
13 1 2.42247637682 5.44232050024 6.69649091032
200 2 0.277527430435 6.45223830586 6.31286278035
185 2 3.34762026317 7.72689011008 4.06368771851
211 1 4.64561703841 4.31840716011 5.85178215946
184 1 4.60515116694 6.81497624462 5.87981536651
192 1 6.91856218563 5.19350171888 5.3763273072
191 1 6.88862114024 7.69068390184 5.42974592748
190 1 8.46978872591 6.89721065013 7.11896062091
195 1 9.16242554518 6.05618668307 4.90898114771
213 1 8.4418551494 4.40441110957 7.08768262512
1526 1 11.401254897 6.92861351589 4.45425920095
1544 1 10.691251797 5.26069247796 6.65187978076
1550 1 11.3180675351 4.45049943001 4.41105789147
1543 1 10.7185854812 7.73496060343 6.69358875007
1530 1 13.5652995949 5.32236903931 3.96996320557
1549 1 12.9183222474 6.15014109419 6.17520811904
1555 1 14.9695496207 4.50380854841 5.7675382353
1528 1 15.2587499324 6.99347151364 5.7746860935