ITEM: TIMESTEP
24000
ITEM: NUMBER OF ATOMS
5376
ITEM: BOX BOUNDS pp pp pp
0.0 42.7297273569
0.0 39.5600404449
0.0 37.0050293879
ITEM: ATOMS id type x y z
5216 1 1.047314191 1.3170216886 1.93233036038
193 2 1.87258533285 3.7132063247 2.31073101818
5 1 3.84285281451 1.97107507962 1.76008936764
164 2 2.50375572847 0.582764670491 0.224858095288
8 1 6.21015778014 2.81371451362 1.29503980733
9 1 6.21545945043 0.374740153986 1.29509675236
25 1 5.50684894588 1.25983439126 3.47562170099
4 1 5.60687894775 3.73080142069 3.47067697027
7 1 7.7631777764 2.06014396522 3.06655870572
10 1 10.0405415656 2.88683412906 2.63070214109
11 1 9.96153562804 0.394564914856 2.65868766638
12 1 8.4885045674 1.19984912269 0.877890109425
1347 1 10.770755255 2.04259814264 0.444418165315
1 1 8.52461257924 3.66908134445 0.873399157918
1349 1 14.4617083391 2.07287917346 1.69774697686
1363 1 12.2192421775 1.22210556639 2.21945322526
1346 1 12.3372172892 3.72626556326 2.16502851883
1508 1 12.9576361241 0.383271127203 0.0422853828325
1352 1 16.8412748816 2.75494755203 1.3944049603
1353 1 16.8002993569 0.345458079163 1.16285833109
1369 2 15.761047191 1.20350142662 3.26179566233
1513 2 18.9155574684 3.63222067104 0.965059725648
1348 1 16.1061378562 3.61934695335 3.55629393285
1356 1 19.3585007977 1.2531183023 1.47864484823
2710 1 21.9574881413 1.32016637591 1.79972354037
2863 1 20.4377218498 3.01390358062 2.75395928705
1490 1 21.1927226513 3.19353012487 0.0873210584631
1355 1 20.4142704636 0.384510384752 3.57500910862
2694 1 24.538850767 2.93852110374 2.30898469668
2699 1 25.8783668651 1.27622620379 0.416656307611
2698 1 26.0171431193 3.69755601517 0.449245778992
3868 1 26.7511854963 2.0289378245 2.6416119943
2709 1 24.3451878884 0.483500339974 2.22702708353
2693 1 23.5879277655 2.27963328741 0.213479089771
2697 1 28.2664944426 2.82558095162 0.858518892067
2714 1 29.0152737314 1.16399059207 3.03881691276
2717 1 30.5347526448 1.96116585072 1.26169888777
2718 1 28.1788028767 0.379670796297 0.82918976202
2713 1 29.0844588511 3.62253634995 3.06526357804
4039 1 32.8128304333 1.10744180608 1.66972787807
4038 1 32.8780964667 3.56779841333 1.6916200555
2734 1 31.2945291518 0.307291028163 3.44312455326
2712 1 31.3500774474 2.7673386528 3.46137756709
4060 1 35.09118858 0.256126022475 2.08352107424
4037 1 35.1622712888 2.71876800577 2.10127639011
4043 1 36.6041233551 1.07910984256 0.303940992639
4059 1 37.442151691 1.87247212301 2.52987653314
4042 1 36.6881054225 3.52852182526 0.322506485858
4062 1 38.8199229868 0.186402102543 0.706868805806
4041 1 38.943787593 2.64602385366 0.73407544414
4058 1 39.6434710325 0.918389968719 2.91462789729
4057 1 39.8394116483 3.52563861894 2.97921104374
4196 1 41.1483047383 1.64352952068 1.13861896508
17 2 41.8467812278 2.0685125877 3.31093585871
187 2 0.755663591479 6.50888256161 1.24878723825
185 1 2.2588100597 7.74439165461 2.62073083114
331 1 2.49297420835 7.70726967638 0.0414554636084
332 1 2.45784419802 5.24996989328 0.000584685732411
194 1 4.04728165928 4.40881255858 1.71391881253
173 2 4.07801936872 6.69097922238 1.58534979494
177 1 6.29881458486 5.28068460435 1.32044470056
172 1 5.54853266847 6.19605635584 3.47391815131
176 1 6.34729760866 7.72429497353 1.2922745049
196 1 7.81774669973 4.53335346365 3.05229194816
175 1 7.82041148781 6.98410127191 3.03915023033
179 1 10.0712497158 5.37192700177 2.60055015992
180 1 8.54914839113 6.14753350654 0.848993025139
1532 1 10.8045401762 4.52472443595 0.41992663424
1515 1 10.8048656869 7.00118601228 0.415746290091
178 1 10.0632640376 7.84886847675 2.61482278632
1517 1 14.6077635406 7.03702154932 1.67115138923
1531 1 12.3510621343 6.21518484464 2.16057500913
1538 1 14.6934765412 4.54806796073 1.72969560059
1521 1 17.0816517413 5.24832466925 1.26783988269
1839 1 18.3749098832 6.79620547635 3.13719499303
1537 1 16.0277515297 6.1237571058 3.37689845714
1519 1 18.33956144 4.47238201058 3.2681508084
1520 1 18.6147026145 7.81144530262 0.951845122043
2689 1 22.4224863623 3.97244538168 1.99292531478
1524 1 20.0675042931 5.57183583392 1.56183574617
2868 1 22.4386209632 6.34568745428 2.12324760357
1680 1 21.3732593783 7.82989097623 0.373811262034
1842 1 20.440082181 7.74087918015 2.73990428878
2692 1 26.8440817555 4.49179880684 2.67952966805
2867 1 26.0916618486 6.16203780214 0.483464493251
2883 1 26.904677689 6.95739520389 2.70569042574
2884 1 24.6703948045 5.38266985389 2.2705669495
2857 1 23.800317086 7.07225031748 0.134046489563
2861 1 24.634661798 7.79743045314 2.35644817815
2715 1 23.8313394237 4.66341889466 0.117946870528
2696 1 30.6012369956 4.42136102517 1.29258869194
2882 1 29.1403521943 6.08971824844 3.10001693023
2885 1 30.6575586538 6.88794412794 1.32221113427
2886 1 28.3403726135 5.28392499096 0.890741997986
2865 1 28.417638649 7.74503635109 0.927042023647
4207 1 32.9182880285 6.03012388903 1.71846140417
2880 1 31.4276821358 7.70622242165 3.52298778999
2902 1 31.3991407362 5.23134002044 3.49313443577
4205 1 35.1359242409 7.64835891557 2.12715917753
4228 1 35.2018139336 5.17203305877 2.12470591203
4036 1 37.5243298557 4.32163346031 2.55642965426
4211 1 36.6878497365 5.97268951032 0.319766972876
4227 1 37.3763704036 6.77556248444 2.52724603977
4209 1 38.8836709513 7.57380025785 0.778427953996
4061 2 41.1322317911 4.00748015857 0.729360040933
4230 1 38.9689930748 5.11515338505 0.744698257445
4226 1 39.5939859859 6.0225861123 3.09930933857
4397 1 41.0749583095 6.62150383284 1.2427466682
4246 2 41.7230844252 5.20097311871 3.39377301766
182 1 41.9539195033 7.62922674362 3.27957277007
4229 1 0.523135055114 8.76806368404 1.40837380961
374 1 0.286982425905 11.0648312432 1.77108930395
500 1 2.60446718888 10.317544229 2.93091566237
499 1 2.361574637 10.0615695764 0.439017976826
355 1 4.17381144468 9.10852047268 1.80380538524
341 1 4.21096487473 11.6500660802 1.65005729238
361 2 5.8138366254 8.64342497729 3.44944988174
345 1 6.27853194614 10.2163424614 1.37555445303
364 1 7.83458277732 9.48649476239 3.08998235741
169 1 8.5478226346 8.62621452475 0.848095018967
347 1 10.0454485754 10.3101662671 2.65977190801
348 1 8.51325995259 11.075601085 0.911392577943
1700 1 10.7945053459 9.46411650194 0.450996277835
1514 1 12.3641393536 8.68444111802 2.21929656374
1699 1 12.2761004602 11.1622845923 2.21705398785
1706 1 14.5903428831 9.54929048683 1.76968408363
1844 1 13.0212658874 10.3042086932 0.0401163838357
1689 1 17.1014467733 10.330076597 1.03477247765
1705 1 16.3731251495 10.7353830568 3.48318937427
1708 1 18.4785864377 9.42611419766 2.86688505854
1516 2 16.5083260623 8.36959127795 2.50012778019
1848 1 20.194502865 10.1187003135 1.38104777432
2862 1 22.5302479749 8.78508764405 2.05150684178
1692 1 21.1429014138 10.070738251 3.5997568106
3031 1 22.4865428101 11.1210660348 1.86385591683
2860 1 27.0051415489 9.45385934324 2.68390172087
2866 1 26.1819285455 8.56594617182 0.531100551179
3035 1 26.3232610679 11.0149463968 0.620330239834
3052 1 24.7670026962 10.2646603773 2.34986033537
3036 1 23.9387243121 9.40613051004 0.129913707653
3175 2 24.2004066953 11.6484564625 0.335621737604
2864 1 30.6805062705 9.37109727571 1.31964627397
2881 1 29.2132681491 8.56345238543 3.12025163284
3054 1 28.4851246921 10.2122274934 0.909585729887
3050 1 29.1316559592 11.0298253913 3.11837971276
3053 1 30.573779798 11.8544452924 1.31158383911
4206 1 32.8989447137 8.5102846774 1.72672244963
4375 1 32.8239314728 11.0031624858 1.72982676051
3070 1 31.3651382765 10.1964437512 3.52977998606
4396 1 35.0655087045 10.1377700715 2.1510022238
4204 1 37.3059801236 9.2526309299 2.56248451585
4210 1 36.6218216575 8.45165935475 0.344280580828
4379 1 36.5270666004 10.9392018826 0.359190171142
4395 1 37.2358525631 11.746941819 2.59051233526
4398 1 38.745165498 10.0780246914 0.772998048867
4225 1 39.5731909151 8.43218533543 3.01115821449
4394 1 39.4432556136 10.9124441358 2.99705911327
4208 1 40.9376312223 9.22324374994 1.22133685993
4224 1 41.634583775 10.081322352 3.43068213165
542 1 40.8541265303 11.704100661 1.17169865467
170 2 2.07193470257 12.2941265962 1.84787127118
523 2 0.175716042522 14.8772425419 1.20402508895
4582 1 1.18329865172 14.0174781655 3.1615264432
530 1 3.8848754726 14.1085667284 1.72795359181
343 1 7.61091339978 11.9035358912 3.11901313413
340 1 5.45122954635 13.4668537482 3.48082460582
344 1 6.24588924731 12.6931029723 1.30065060518
513 1 6.16229006242 15.1463158056 1.29468322132
532 1 7.65843645548 14.3776548006 3.0502136611
1683 1 10.734898965 11.9277290966 0.461013696849
337 1 8.45819904298 13.5430881156 0.856112677748
346 1 9.91205233438 12.7387191832 2.64484768222
515 1 9.88776846916 15.2134077791 2.59056825019
1868 1 10.6737991788 14.3901552604 0.393276193624
1685 1 14.5821795898 11.9225266765 1.80070839258
1682 1 12.1362395378 13.6117446636 2.14624832692
1874 1 14.4138679384 14.459820591 1.73456245078
1843 1 12.9682552137 12.7467796194 0.0156555601147
1688 1 18.8943007425 11.9996399195 1.26515183499
1684 1 15.8643530591 13.6493582296 3.45082078246
1857 1 16.7195381653 15.3062896195 1.4343030712
1833 1 16.6901741266 12.8342794465 1.29314577741
1855 2 18.401130869 13.5294934007 2.89066229279
1849 1 18.9781275772 14.8011503641 0.868442745442
1876 1 20.9704971331 12.8654763529 0.575602782984
1681 1 20.5884012257 14.8829771736 2.72468840147
3030 1 20.8636146364 12.4318338761 3.16699430486
2016 2 22.4415168143 13.5395396242 2.07309916904
3051 1 26.915411732 11.8996778071 2.79688945315
3028 1 26.8185197155 14.334949027 2.65451373151
3029 1 24.7069572845 12.6768670196 2.4352046006
3034 1 25.9774003853 13.5371427536 0.439687231007
3220 1 24.6146857996 15.1405956898 2.30350655148
3032 1 30.5647337342 14.3400419277 1.34821871351
3033 1 28.258907329 12.6836246931 0.943141427545
3222 1 28.2904718286 15.1548280582 0.882518736471
3049 1 29.0773197036 13.5133912781 3.11222942132
3048 1 31.3311461841 12.6788209253 3.47448805274
4374 1 32.7985920628 13.4701594306 1.70521337423
3238 1 31.3292754238 15.1607328595 3.49446590476
4564 1 34.9853635134 15.0904186051 2.13634412169
4373 1 35.0167095758 12.6161785948 2.16901700055
4372 1 37.1796984757 14.1991153958 2.58198716978
4378 1 36.4628161808 13.4147539578 0.361265298377
4566 1 38.6408797397 15.0192022335 0.822440784637
4377 1 38.6773937215 12.5658229676 0.761168375144
339 1 40.8113752695 14.1703590605 1.20322486106
4393 1 39.3851673567 13.3734072547 2.99497203145
4392 2 41.5546127243 12.6342901361 3.27560840059
349 1 41.6892994481 15.1132403566 3.40719579259
4562 1 39.3843364182 15.8144406971 2.98402387396
4703 1 1.09032855529 16.6117798505 2.53285395321
4694 1 0.0124627603705 18.1745712646 1.08451976899
667 2 2.16959600687 17.8156347299 0.840675042237
509 1 3.72262842004 16.5254667319 1.88738945283
698 1 3.86789198488 19.1532171068 1.59870214131
508 1 5.29276882508 18.4362422898 3.46043697388
512 1 6.05513146644 17.5886871406 1.27578740568
700 1 7.56772450492 19.3150657422 3.03722227223
529 1 5.4296647207 15.9725151533 3.47082788263
511 1 7.62880274044 16.8574490582 3.01700702788
516 1 8.39444356942 16.0133452496 0.831697346866
505 1 8.36541694917 18.4777072888 0.855840738517
514 1 9.87564697371 17.6888495635 2.59592963371
1851 1 10.6216108039 16.8717994315 0.377490852117
2036 1 10.5917973525 19.3433022912 0.401568318412
1850 1 12.0955009588 18.554858416 2.1690529047
1853 1 14.3188990495 16.9166142597 1.74194899081
1867 1 12.0894228688 16.0916507993 2.13140739608
2042 1 14.316623248 19.4002586394 1.77971972239
1852 1 15.929957632 18.637522438 3.54207956356
1873 1 15.8504684686 16.2068496451 3.47698278229
1856 1 16.50278065 17.7605487257 1.39513957347
2044 1 18.4401349464 17.2669099454 2.7572121724
2023 1 18.105221525 19.6533968528 3.01640069079
2184 1 18.5263865137 18.6131527628 0.51728345056
3037 1 22.5230106378 16.1910973031 1.96322543768
3198 2 22.6273357764 18.7464145514 1.93540451474
3026 2 20.183586942 16.8624295044 1.40542322803
1858 1 20.3733091553 19.3717866469 1.81510618222
3209 1 21.0574670323 17.4748429655 3.54013617815
3204 1 23.7100768267 17.7174493372 0.0281782068603
3203 1 26.0402735395 16.0400823562 0.468117403972
3196 1 26.7828009414 19.2659168074 2.67989026133
3197 1 24.6109480452 17.6270572027 2.402380299
3202 1 26.1030636541 18.3965800527 0.465056196062
3219 1 26.8471938865 16.808080982 2.64998493709
3218 1 29.0879402826 15.9889895133 3.06007073192
3200 1 30.5378657054 19.2787133604 1.24522745009
3201 1 28.3087524459 17.5925891565 0.835868960273
3217 1 29.0528322065 18.4720978529 3.02734882985
3221 1 30.5438444272 16.7982339607 1.27100244007
4543 1 32.7661182394 15.9508296246 1.68702094852
4542 1 32.7457378588 18.4261559967 1.67030658265
3216 1 31.2931722578 17.6344655967 3.46064808274
4541 1 34.9582304516 17.560296543 2.11924713229
4547 1 36.4351844515 15.8817257269 0.35492258386
4540 1 37.1341078576 19.0889331048 2.55939688726
4546 1 36.4605759429 18.3449162603 0.348578085379
4563 1 37.1577049235 16.6591235379 2.56265084162
4545 1 38.7239039317 17.4627753395 0.837791260287
4544 1 40.70747604 19.2031554825 1.43724685031
4565 1 40.9935216792 16.6511943398 1.41390117255
4561 1 39.3749666456 18.2796133528 3.09189300407
4560 1 41.6671833348 17.5423591022 3.59867189302
4750 2 0.149720464721 20.3481891818 1.82116073182
691 1 1.75803762418 23.63767909 1.92636324581
860 1 0.589562275126 22.0249013726 0.378824079265
677 1 3.77075991078 21.638852538 1.75633170692
4728 1 1.31659092506 21.4666610525 3.39171046962
690 1 3.2891862428 20.0726797114 3.6980654353
836 1 2.02245005395 20.1342042734 0.0291542338155
680 1 6.12381268528 22.5597207483 1.29342887142
681 1 6.09473121233 20.0912715103 1.25182687803
697 1 5.39273918927 20.9556417769 3.46892321422
676 1 5.43001562775 23.4234872155 3.46505238915
679 1 7.62435626624 21.7991480748 3.04358406255
682 1 9.85229856434 22.6600727859 2.6072779695
683 1 9.82977114723 20.1682211801 2.60969561498
684 1 8.34210557111 20.9630983884 0.832900814419
673 1 8.35833895391 23.4542327559 0.839988983384
2019 1 10.5788894227 21.8266623111 0.402902886844
2021 1 14.2635037449 21.888954462 1.78441287708
2035 1 12.059064126 21.0291714586 2.18677730019
2018 1 12.0870447708 23.5238569085 2.17717471984
2025 1 16.5000291408 20.2394328114 1.29058347063
2024 1 16.4540802152 22.772364538 1.35039090106
2041 1 15.8052229983 21.1099329628 3.52027490387
1854 1 17.886178009 22.1402244874 3.1257755427
2020 1 15.7778240996 23.6026874057 3.5525010302
2212 1 18.6652580228 21.0069060983 0.915228930579
2017 1 18.766958227 23.4198425036 0.95869724647
3367 1 22.387673456 21.0870024706 2.36410289694
3373 1 20.8292926277 21.9617564191 0.8477447006
3377 1 20.0107483446 21.4329724729 2.88703280249
3363 2 22.6323333514 23.606276787 1.53000720523
3388 1 24.5882552791 19.997825507 1.75517325252
3365 1 24.4553054572 22.5493977697 2.37597533347
3371 2 25.6474865083 21.6389633553 0.637503690429
3387 1 26.7441904051 21.8413750199 2.63633093938
3390 2 28.3560493228 19.9721179135 0.868849850998
3369 1 28.1085678435 22.5697317109 0.727965587856
3389 1 30.4198244016 21.7652283507 1.22129974123
3386 1 28.9796565267 20.9602675175 2.99240036183
3385 1 28.9799630682 23.3991049267 2.94929497475
4711 1 32.6932001745 20.89227851 1.67150872467
4710 2 32.7723655947 23.2871710967 1.58424321884
3384 1 31.2358379837 22.6062296928 3.40155801709
3406 1 31.2363654567 20.1325675992 3.44326076816
4732 1 34.9268588137 20.0420678287 2.10553067631
4709 1 34.9673458305 22.5108615914 2.15037027978
4715 1 36.414167356 20.8492593499 0.311196274256
4714 1 36.4400801342 23.3416803755 0.448527555623
4731 2 37.0907348252 21.4526424217 2.44043268455
4734 1 38.5917542158 19.9917977275 0.811058535099
4713 1 38.5890735322 22.5840044839 1.10481793604
703 1 41.4951414828 20.2659964402 3.60985944612
4733 1 39.2598738271 20.7314316634 3.00091879527
4729 1 40.021399101 22.9082683365 3.51755623129
675 1 40.7969241778 21.6546089524 1.05295844916
4918 1 42.2885955353 22.8541434101 2.349875909
686 1 1.9357749105 26.0338411585 2.06611286743
857 1 3.20193882814 27.5086964639 3.63764342881
1003 1 2.33286864069 27.3850756412 0.000967673331359
845 1 4.10227445376 26.633737431 1.62074790439
866 1 4.01477271212 24.2039297815 1.7117791244
849 1 6.2045640772 25.081982282 1.26308702272
865 1 5.47183886094 25.9203085907 3.45057629069
848 1 6.22501166949 27.6000345258 1.29480813808
868 1 7.65115097847 24.2934382363 3.04291950144
847 1 7.67536931429 26.794948516 3.04831054502
851 1 9.88425393377 25.1506040774 2.6013969877
852 1 8.40616023905 25.9562213718 0.828459120867
2204 1 10.5921547616 24.3149694893 0.402659465786
2187 1 10.6400751865 26.8003713614 0.388584449981
850 1 9.91675798838 27.6288773595 2.59578319357
2189 1 14.4242244113 26.8614946573 1.73219191382
2203 1 12.1360020184 26.017229386 2.16293992966
2210 1 14.3284515154 24.379217928 1.73994649185
2022 2 17.9294319106 24.4699616828 3.04355108582
2193 1 16.5930825946 25.2456163481 1.28109521444
2209 1 15.9043422853 26.076846189 3.50750865236
2352 1 18.9370382973 25.7954958469 0.947934947526
2195 1 18.1706581388 26.9874212733 3.15168667479
3541 1 20.4781297061 24.1011953368 2.48561727598
3534 1 22.409932452 25.8566259632 1.72659960027
2211 2 20.4554627023 26.6837190088 2.37019608715
3370 1 25.851590317 23.8428359648 0.43424663203
3364 1 26.7735730554 24.3353760344 2.64637227924
3539 1 26.0772815113 26.1760862744 0.394726483395
3555 1 26.863400413 26.8268972547 2.56970865399
3556 1 24.6151568247 25.1379778534 2.07190668035
3540 1 23.8981938875 27.076950808 0.0448259612775
3533 1 24.5893217221 27.6716921484 2.15491743116
3368 1 30.4823555508 24.2100903568 1.23414890746
3554 1 29.0317282008 25.8999069177 2.97491619254
3557 1 30.5238621169 26.6873178334 1.24633982385
3558 1 28.2362165337 25.0463325446 0.789137286556
3537 1 28.2790744736 27.5921206449 0.783607470288
4879 1 32.7551716216 25.8018249504 1.69351379506
3552 1 31.2879360846 27.5496458604 3.42868733504
3574 2 31.1922626562 25.1419738233 3.5016000682
4900 1 35.025611006 24.9402785173 2.16608173706
4877 1 34.9938576872 27.45718898 2.14180971028
4708 1 37.4269321705 24.0368609449 2.81652695493
4883 1 36.4032360269 25.8205118609 0.391995195959
4899 1 37.1800287247 26.6299373687 2.59599627077
4881 1 38.6896093166 27.4354484241 0.81980806772
4902 1 38.4993311832 25.0405152183 0.828162711887
878 2 42.5976855304 25.3222395211 2.18926329677
4712 1 40.4047140945 24.1126451729 1.59897175619
4901 1 40.7696442021 26.4431569212 1.43635912097
4898 1 39.2314180015 25.6668891817 3.19874019202
859 1 41.4958692817 27.2619321445 3.54973941805
843 1 42.2482866441 24.1541826531 0.0633790605016
5035 1 42.664683446 26.5795977265 0.00559287313309
1027 1 0.484904163909 28.015361619 1.97153777854
5207 2 1.2688773342 30.0825602368 2.51017295632
1172 1 2.10320529029 29.7052737561 0.34474633515
1013 1 3.83492324379 31.6066843835 1.7954985777
1034 2 4.05628761787 29.0243887991 1.61290195344
844 1 5.40710420257 28.4464991785 3.5328060582
1017 1 6.14998532774 30.0707953087 1.26989714151
1033 2 5.65173010143 31.0184484397 3.47128312027
1036 1 7.64291184707 29.2736013911 3.0522115604
841 1 8.41802016735 28.4382045746 0.842349032873
1019 1 9.88438237814 30.0892903512 2.61891399148
1020 1 8.39638753165 30.8884204606 0.861669032705
2372 1 10.6540069892 29.2473359902 0.410529956403
2186 1 12.1699345963 28.477341401 2.16306410979
2371 1 12.1176341466 30.9301119127 2.23691685939
2378 1 14.4702560288 29.2882577954 1.76920330622
2516 2 12.9058733967 30.1401912031 0.123631079703
2192 1 16.8151892866 27.6997592134 1.27641962099
2188 1 15.9572486154 28.4941049563 3.53970791349
2377 1 15.939481984 30.9689891899 3.49944120596
2360 1 16.7275191967 30.1500753822 1.324547094
2361 1 18.1342103074 29.5576769685 3.17885297567
2191 1 19.295191651 28.6597797456 1.3588968715
2194 1 18.9407227372 31.0604213398 0.687645707213
2363 1 20.4616430939 30.3667542384 2.82420347728
3531 1 22.1955441626 28.2961563554 1.96328750531
2682 1 22.583875041 31.1687701302 2.32695033834
2342 2 21.2033563555 29.7008061769 0.608501982975
3532 1 26.8075375909 29.2950337412 2.59351470497
3538 1 26.0137663967 28.594852409 0.372793651956
3707 1 26.1091123563 31.0072618988 0.449199520598
3724 1 24.5869754452 30.0639699275 2.13327442219
3536 1 30.5470579206 29.1851086187 1.24949375371
3553 1 29.0541213396 28.3982345447 2.98763874247
3722 1 29.0188859997 30.8792701177 3.02907683987
3726 1 28.3066078084 30.0679984373 0.83035350857
4878 1 32.7776868373 28.3029105019 1.68743573188
5047 1 32.8104125237 30.7915756006 1.68114543053
3742 1 31.3011684378 30.0019727918 3.44639090902
5068 1 35.0693105059 29.9522448248 2.11846114307
4876 1 37.2817687109 29.0826997094 2.57969662706
4882 1 36.4924344751 28.3183056947 0.37749339442
5051 1 36.5673944387 30.794316012 0.339433386776
5067 2 37.3461878298 31.4657360404 2.64204571521
5070 1 38.7834730396 29.8743249855 0.716357336159
1010 1 42.1643897176 30.7032423028 1.10264444232
4880 1 40.8831198334 28.769041509 1.28789305665
4897 1 39.3719948088 28.2026542537 3.03047697197
5066 1 39.6945122092 30.7362575326 2.65946918321
5086 1 41.7929124133 29.6238935671 3.44587385104
5048 2 2.00803788487 33.1925764187 2.08529839504
1340 1 2.34156609665 34.9635302316 0.186473642722
1202 1 3.99174191668 34.1056182646 1.76596278645
1016 1 6.08731834405 32.5318695631 1.37308065
1185 1 6.15550132552 35.0161534841 1.38630230376
1025 1 5.35209216137 33.3829929317 3.58891018083
1204 1 7.6383253899 34.2245905444 3.11794173771
1015 1 7.71414574315 31.7645319632 3.06352541379
2355 1 10.627030921 31.6986911159 0.456260562858
1009 1 8.36455088814 33.3372922701 0.939374273426
1018 1 9.90462092091 32.5662905464 2.65200379373
1187 1 9.90835079825 35.0246289046 2.68562912563
2540 1 10.619605742 34.1745492304 0.484111378605
2357 1 14.3738079648 31.7515956384 1.80749063991
2354 1 12.1174109785 33.3847686237 2.23777156811
2546 1 14.3049035586 34.220001941 1.78223264137
2515 1 12.8299881261 32.5418356094 0.0393026736565
2684 1 12.8613490479 35.0130131448 0.0246915335798
2358 1 18.340468167 32.0837111341 2.82604262066
2688 1 16.6505432368 32.6273274933 1.31179010391
2356 1 15.7768266445 33.3548998499 3.45899252684
2529 1 16.5103017603 35.0437581207 1.44494731891
2673 1 18.7245556333 34.1295589228 1.19329147627
2527 1 17.7762676077 34.4572125548 3.60506927459
2362 2 20.5163169398 32.5651538425 1.75700025523
2531 1 22.1984467439 33.7600462371 1.04842300666
2532 1 20.4811401342 34.8998526811 2.79076344366
3723 1 26.6883927313 31.7541517343 2.67225998872
3700 1 26.7326264094 34.2373119936 2.63555502877
3701 1 24.4505961805 32.7618072519 2.26223803577
3706 1 26.0719857642 33.4618899975 0.445267064657
3892 1 24.4683127903 35.1695367124 2.17375757055
3709 1 23.9842415851 31.7835827984 0.252094903151
3725 1 30.5428651194 31.6602471761 1.25984840345
3704 1 30.512718617 34.1295645156 1.26102975513
3705 1 28.2755776871 32.5295913199 0.858882854547
3721 1 29.00897723 33.3444991357 3.04381864582
3894 1 28.2423342963 35.0165953074 0.846483999453
5046 1 32.7944412593 33.2572669384 1.6858992889
3910 1 31.272176292 34.9400491585 3.45178497588
3720 1 31.2981529393 32.4700356336 3.45495087503
5045 1 35.0756589528 32.4029737434 2.10558408755
5236 1 35.0240793337 34.8644659144 2.0871583496
5044 1 37.2604201596 33.9838027636 2.51522852664
5050 2 36.4364547148 33.3088143891 0.2487643463
5238 1 38.701426619 34.7455491992 0.695742765028
5049 1 38.7377443649 32.317246187 0.679250184679
1178 2 42.7000525091 35.1762720288 1.29738232926
5065 1 39.416256532 33.1039017243 2.97051735699
5237 1 40.861081846 33.5466153882 1.04694745897
5254 1 41.5295484612 34.4245169349 3.20796598877
5234 1 39.4376366834 35.5233467289 2.95485039382
5064 2 41.5965003615 32.1592855256 3.00176041394
20 2 0.397302306236 38.3210880428 1.39767149888
1181 1 3.61820292643 36.5580755643 1.94810066335
1190 2 1.52051370708 36.295535179 3.61839718112
26 1 3.99948705221 39.030416381 1.72108710337
1201 1 5.35873860988 35.867560719 3.52747273389
1184 1 6.09979930496 37.463997747 1.37268951636
1180 1 5.39121537128 38.3453619796 3.53862385041
28 1 7.68173302507 39.1366942199 3.08600171286
1183 1 7.64340377435 36.6851783591 3.10413399661
1188 2 8.42274448311 35.8191497542 0.931920393286
1177 1 8.42661996483 38.290660233 0.918803628321
1186 1 9.93276569665 37.4870422768 2.66937867899
2523 1 10.6849970506 36.64747276 0.484746120108
1364 1 10.6968611291 39.1107024248 0.471649453086
1370 1 14.5084602773 39.1263248511 1.80015342749
2539 1 12.1575644028 35.8445790067 2.24948266143
2522 1 12.1958792582 38.3280039694 2.21201891188
2525 1 14.3932016164 36.6901297397 1.75929820544
2683 1 12.9209040314 37.482229244 0.0251071669463
1351 2 18.3566191738 38.8086126441 2.65302236
1372 1 18.3451799915 36.4534548897 2.52904622866
2528 1 16.6134451447 37.5466439712 1.38620609619
2545 1 15.7990534382 35.936116544 3.50597971647
2716 1 19.3159655991 38.3853506946 0.656266706748
2524 1 16.1145014422 38.3322042287 3.66350768611
3702 1 22.3127274996 36.0847084006 1.65174945616
2521 1 20.1210178856 36.1411937617 0.771786139539
2530 1 20.4677628159 37.4782799781 3.14537473431
3865 1 22.0131033776 38.5019709786 1.70683789694
3875 1 25.9901656994 35.9480328677 0.417980162179
3869 1 24.3171053487 37.5959925473 2.18651086325
3874 1 25.865563045 38.4098692405 0.413990718504
3891 1 26.6724348362 36.706540653 2.62122519193
3885 1 26.663526634 39.1545424233 2.6165133312
3890 1 28.9739361418 35.8144504485 3.03966996695
3872 1 30.4683970261 39.0646142775 1.24551143296
3873 1 28.1730561765 37.4878970167 0.827380908875
3889 1 28.9631818375 38.2740270463 3.03024820512
3893 1 30.4623058317 36.6008875545 1.24540267505
5215 1 32.7466267389 35.7304931548 1.66398810399
5214 1 32.7509977516 38.2032056078 1.66322754074
3888 1 31.2601150429 37.4080158025 3.4397419322
5213 1 35.0222730565 37.3431108792 2.08315987387
5219 1 36.4806820033 35.7098415958 0.311885706456
5212 1 37.3487814217 38.9384462489 2.51173754991
5218 1 36.4946301931 38.1717553844 0.295359493887
5235 1 37.2602051258 36.4595839271 2.5186992689
5217 1 38.6828654197 37.2660189426 0.691648201398
4056 1 41.8266207297 39.3501868842 3.30495109922
4078 1 40.925581068 38.6895356166 1.08529372456
5233 1 39.5847235865 37.9703807041 2.92231553128
1179 1 40.6895316483 36.0934628467 1.00173655294
5232 1 41.7961267265 36.8605687715 3.01401139811
186 1 3.43680626121 3.1791618659 3.83440659557
14 1 1.23539380656 2.3891808035 4.4724697648
18 1 3.31246714285 0.70032111129 3.98770447032
37 2 2.49941005363 1.28152263745 6.47574639
13 1 2.61246106949 3.69542631045 6.07020058786
1208 1 0.763169283358 2.53273182769 7.36310071687
16 1 4.67873012448 2.06219093175 5.71429851504
23 1 6.96156894484 2.87777834877 5.28399181504
24 1 6.94177254651 0.422102881124 5.2842367757
22 1 8.43284371963 2.0624388363 7.03317941338
27 1 9.22307889695 1.2403244939 4.84279951749
1375 1 10.7030109196 2.89226907919 6.57262685582
1376 1 10.7183867773 0.418829464898 6.5976693893
6 1 9.24581144032 3.7133311906 4.82323975325
1358 1 11.5099851787 2.05766851415 4.39766255629
1361 1 13.7661185192 2.8671609501 3.91069854078
1362 1 13.726215137 0.358297741836 3.97959947935
1360 1 15.1906716902 1.95892899519 5.59073013561
1381 1 12.9828249303 1.21801654111 6.14585745339
1357 1 12.9587713701 3.68174096516 6.12184633427
1540 2 18.4796239034 2.25335848719 3.80239840224
1368 1 18.7040358957 0.989496706865 5.64198164047
1359 1 17.2732622082 3.09254884476 5.97805132089
1386 1 16.804870625 1.20569399581 7.3080894526
1354 1 22.9697714315 1.95830750191 3.87535366177
1367 1 19.5388391637 3.56089212763 5.26792540355
1371 1 21.2838903815 1.17480713415 5.79800613874
2691 2 21.6509158918 3.42862518414 4.78086077509
2711 1 23.6203936422 0.408018804861 6.14043230219
2731 1 23.7137776144 2.8464594963 6.12874535467
2695 1 25.1974672862 1.24259084131 4.42929207504
2730 1 25.9893881877 2.06023224004 6.60838949777
2704 1 25.3181073317 3.73251568403 4.48523767999
2733 1 27.4791604955 0.372542001012 4.81909323394
2708 1 27.5531136226 2.83337705997 4.84228040276
2732 1 29.818999855 1.97491894217 5.2351450881
2729 1 28.2879944973 1.17328037073 7.00289325101
2728 1 28.3334321598 3.64411954186 7.03067679054
4055 1 33.625581753 1.91402030314 3.86661612691
4048 1 34.396176411 2.73119093755 6.06911087898
4050 1 32.0903471845 1.12115874261 5.63891410063
4075 1 34.3512705199 0.27201328794 6.05231671155
4049 1 32.1298307083 3.58364928097 5.6605292032
4052 1 38.2789493926 2.71636124458 4.73644679825
4053 1 35.9583810108 3.52404099923 4.3123566212
4054 1 35.9025911929 1.05886089515 4.28324639766
4074 1 36.6599889685 1.90715736193 6.47061508691
4077 1 38.1626372866 0.192480599551 4.70602440816
32 1 42.6651121697 0.697686426189 5.67082018667
4072 1 39.0272771046 3.54226947714 6.98543854919
4073 1 38.881959524 1.08163838894 6.8604082627
4076 1 40.4676466581 1.74181660227 5.08454610971
5247 1 40.986412816 0.0511116170786 7.32242989946
4095 2 41.1845907304 2.23673610546 7.20303550561
392 1 3.2718805979 5.60553952408 3.85632293471
206 2 1.34045961503 7.07062880149 4.58899507454
224 1 2.57320303459 6.12844155118 6.19665555882
200 1 0.257863184944 6.35567392139 6.96434809393
31 2 0.518452672699 4.35670667834 5.9532040238
211 1 4.7417020131 4.46783595327 5.6706015006
184 2 4.87405876021 6.70711486613 5.71264259772
192 1 7.01354319902 5.32719238977 5.23817407001
191 1 7.07892775503 7.76199318665 5.21871595605
190 1 8.49422516128 7.01739852045 6.99414908388
195 1 9.28781139867 6.19935099401 4.79354568086
213 1 8.42827570928 4.53602559226 7.0149959264
1526 1 11.5956386943 7.05841821053 4.33648442303
1544 1 10.7223520143 5.3741216078 6.53910109288
1543 1 10.7661353666 7.85829043521 6.54073325501
1550 1 11.516528488 4.54730423256 4.35327324995
1530 1 13.7941868165 5.38093431484 3.884777881
1549 1 13.0007067135 6.19950948434 6.05833994629
1555 2 15.1045277912 4.42649996223 5.62664745171
1528 1 15.3364263391 6.88734118387 5.82277154693
1529 1 14.012281421 7.89508241611 3.92742897955
1536 1 17.2992069587 5.43054561892 5.21221195641
1350 1 18.7937514335 4.66774880786 7.06149602601
1539 1 17.450818637 6.78955194618 7.22861231709
1522 1 19.3917223621 6.45358301137 5.30392161084
1523 1 20.7796560543 5.37285028896 3.76175910846