ITEM: TIMESTEP
28000
ITEM: NUMBER OF ATOMS
5376
ITEM: BOX BOUNDS pp pp pp
0.0 42.7297273569
0.0 39.5600404449
0.0 37.0050293879
ITEM: ATOMS id type x y z
5216 1 0.706077611114 1.84184256958 1.92755216711
186 1 2.85533269523 2.49853426512 3.41008111458
1207 2 1.69748599753 0.309735430617 3.26465807119
5 2 4.29133562189 2.13156334185 1.51126224214
8 1 6.3314298946 2.94285806731 1.26087002246
9 1 6.22439887647 0.410258609702 1.28688238795
25 1 5.34529523621 1.13215645917 3.49243387312
4 1 5.34553253463 3.65270569044 3.47706143071
7 1 7.6977055856 2.0683202805 3.08544177292
10 1 9.99661541977 2.92414813792 2.64930245203
11 1 9.9832160526 0.447538480391 2.6556220948
12 1 8.5075575048 1.27033414456 0.892555025789
1347 1 10.8127506585 2.10170758656 0.469197812397
1 1 8.53565667256 3.76538899993 0.879468286806
1349 1 14.5612857183 2.10845164536 1.76210014172
1363 1 12.2378246147 1.28824317471 2.20561419906
1346 1 12.3183527982 3.76211936239 2.21023405619
1508 1 13.1996051783 0.458546115832 0.0713027436334
1507 1 13.1050423716 2.90890954014 0.0347726696623
1352 2 16.8712254511 2.91030640176 1.31638888469
1353 1 16.7698189994 0.388841045674 1.69790742903
1369 2 15.5848508625 1.28225943326 3.6508954283
1540 1 18.4428810823 1.58799253677 2.81600495248
1513 1 19.472515765 3.38062290115 0.738372573704
1356 1 20.3174681805 1.27494487643 1.36546322318
2710 1 22.5121099382 1.16185992353 1.73495507291
1355 1 20.8160451486 0.129319815565 3.33857388212
2689 1 22.0831277923 3.58925789114 1.76569223652
2863 1 20.6948088365 2.58859907711 3.43039491931
2694 1 24.4571935068 2.73311627776 2.16665520033
2699 1 25.9931513076 1.07734440716 0.344923569903
2698 1 25.9696823883 3.55645847148 0.379583504606
3868 1 26.7469251223 1.92274359507 2.54612702878
2709 1 24.5578536021 0.231439019775 2.14363194355
2697 1 28.2427553015 2.74167001154 0.795674211216
2714 1 29.0026153678 1.08777492727 2.99247775439
2717 1 30.4968634808 1.90219033508 1.23182640923
2718 1 28.2469811178 0.263549419539 0.787482814033
2713 1 28.9919124414 3.56142742559 3.00409640343
4039 1 32.745954123 1.05860513705 1.66530349473
4038 1 32.743392973 3.53372246848 1.67253156295
2734 1 31.2493855335 0.250620180113 3.43718059508
2712 1 31.240907531 2.72637353312 3.434815187
4060 1 34.9947440295 0.210468329776 2.08626208885
4037 1 35.0003810206 2.68706969872 2.10266638291
4043 1 36.4989079187 1.02115321945 0.319332856284
4059 1 37.2655662616 1.83654056672 2.53464863144
4042 1 36.5053297424 3.49044210767 0.344586361291
4062 1 38.7224433221 0.162280785051 0.766963711553
4041 1 38.7445466554 2.63195366543 0.776705107219
4058 1 39.540854013 0.973318844195 2.99471409095
4057 1 39.462738062 3.511264003 3.00244697803
4196 1 40.9983607393 1.69952874515 1.20707746193
17 1 41.6438845995 2.69502923993 3.27381649797
4056 1 41.8467442728 0.175027144271 3.24259735699
193 1 1.37223819983 4.09781447289 1.84829687885
187 2 0.778287538868 6.21094536447 1.22437687181
185 1 3.29165570531 7.77203258426 3.23813420094
206 1 1.23521621914 6.36137863597 3.66684825879
194 1 3.91724917686 4.4580305436 1.61575620706
173 2 4.05660673724 6.9021934778 1.3000351891
177 1 6.19312112767 5.39306923805 1.30269396983
172 1 5.24554258874 6.1679628907 3.51344358369
196 1 7.64464110239 4.54057843797 3.07030584229
175 1 7.68359204941 6.9915354046 3.05731090225
176 1 6.2781579737 7.8234610237 1.24729714287
179 1 9.94712912821 5.3868502124 2.64936852235
180 1 8.49179722954 6.2234436128 0.866662706709
1532 1 10.7831415733 4.57899927252 0.463900237933
1515 1 10.7875250466 7.06181857492 0.439238112593
178 1 9.99090695245 7.86652442421 2.63039208388
1517 1 14.3842503271 7.03312100218 1.89089188246
1531 1 12.2008028988 6.21555999992 2.22909115214
1538 1 14.68468846 4.57438820135 1.82720274746
1676 1 13.0148685671 5.38336128147 0.0557716002543
1675 1 13.0846992761 7.89595861591 0.0106314310448
1519 1 18.4203374949 4.10182269373 2.8247014072
1521 1 17.1156116066 5.28426500176 1.27019651602
1537 1 16.0956984609 5.99401181742 3.50062060605
1520 1 18.8432799473 7.38472464746 1.07997194936
1839 1 18.5442407208 6.6024515733 3.25048551408
1516 1 16.5695062199 7.83021179164 1.85058444378
1524 1 20.0023000599 5.38846622121 1.62271996319
2868 1 22.3167731612 5.95967818511 1.82739743803
1680 1 20.965602625 7.0504562744 0.277841012243
1842 1 20.7300887087 7.54255384974 3.15866017638
2692 1 26.7438693947 4.39070014088 2.58021327745
2867 1 25.9311147926 6.06215036099 0.41112894966
2883 1 26.7578059405 6.86203026527 2.60699870594
2884 1 24.4934908308 5.17954523932 2.18607653686
2861 1 24.5282405006 7.59393179376 2.21094023962
2696 1 30.4867899574 4.37845871169 1.2419691579
2882 1 28.990266054 6.03838440437 3.02019508881
2885 1 30.4733493162 6.85627755518 1.25534264986
2886 1 28.2220499807 5.22068323846 0.814474039189
2865 1 28.2060839856 7.70433175784 0.825655483843
4207 1 32.7283605169 6.01087833628 1.68047132362
2880 1 31.2215689375 7.68475875072 3.45057713236
2902 1 31.2381015324 5.20292957333 3.44384512363
4205 1 34.9674636993 7.64997828588 2.08950209624
4228 1 34.9779719366 5.16816993002 2.11130454194
4036 1 37.220343258 4.32324638142 2.55059950605
4211 1 36.4633410449 5.9641079505 0.336923247039
4227 1 37.2000941001 6.79185813368 2.49657402478
4230 1 38.6880399548 5.14167947573 0.777418813974
4209 1 38.7826484019 7.59195741591 0.821575406581
4061 2 40.7622346096 4.21456992205 1.10926216929
4226 1 39.4770280744 5.9498399547 2.95576537965
4397 1 41.0637040486 6.75445686623 1.33844309101
4246 1 41.9382512441 5.0668162247 2.8901123178
4229 1 0.681481653382 8.36768099198 1.92352362934
374 2 0.237608478643 10.589310875 1.72898094618
499 1 2.25701185635 10.2470764516 0.04112974785
500 2 3.13116940757 10.4265410819 3.69676272378
355 1 3.94905881047 9.40924657615 1.61594116202
361 2 5.72741143392 8.66016251341 3.41174733762
345 1 6.25944498793 10.2675675709 1.29298567876
353 1 5.48485523171 11.0470330793 3.47092747284
341 1 4.05508457158 11.8322037227 1.69102413355
364 1 7.82340620891 9.49116092648 3.04101433373
169 1 8.53481663024 8.68922290994 0.832016779676
347 1 10.0657270371 10.3486863295 2.62044763675
348 1 8.54854550671 11.1468716095 0.885116581713
1700 1 10.8314287809 9.52364453078 0.448568951948
1514 1 12.318907697 8.70848864828 2.21570959457
1699 1 12.372780891 11.1764350981 2.20335305995
1706 1 14.656785228 9.53241348878 1.82969925645
1844 1 13.1172373618 10.3433517147 0.0255846339095
1689 1 16.8342292957 10.3879856215 1.18307725439
1705 1 16.5863248552 11.4813991777 3.27564039276
1708 1 18.4593970116 9.27504516896 2.63310983003
1688 1 19.260101649 11.4246861316 1.90055210495
1848 1 20.2135762474 9.35415106394 0.981623374037
2862 1 22.4334147397 8.51060338112 1.59876366378
1692 1 20.80709604 9.99308060532 3.29567820379
3031 1 22.1748022165 10.9442263785 1.60416353705
2860 1 26.7285316889 9.33077631583 2.61403343921
2866 1 25.9162959928 8.52062629616 0.440562882564
3035 1 26.1324638052 10.9410094043 0.499918463491
3052 2 24.4737148054 10.0677219569 2.00452585816
3051 1 26.7291843447 11.8275539502 2.59037335634
2864 1 30.4971733351 9.33227026612 1.27054959632
2881 1 28.9690151391 8.52277378814 3.0270614432
3054 1 28.2954981566 10.161149895 0.894769718325
3050 1 28.9484798543 11.0121043544 3.05212844409
3053 1 30.3968633789 11.8199392687 1.23169592505
4206 1 32.7228427706 8.48829262809 1.68601655783
4375 1 32.6720418005 10.9699222515 1.67630205116
3070 1 31.1849219395 10.1717148001 3.45843155575
4396 1 34.9555367192 10.1241121733 2.10012761133
4204 1 37.236897973 9.26694874363 2.53698847658
4210 1 36.5087177394 8.44805793564 0.337700254139
4379 1 36.490227299 10.9147730614 0.348887674334
4395 1 37.2117760515 11.7440680435 2.54797085923
4398 1 38.7835769991 10.0630750107 0.766670286738
4225 1 39.5036016784 8.41479458799 3.04074268488
4394 1 39.44861923 10.854148946 3.03181101117
4208 1 40.9996564876 9.1037161523 1.32446868323
4224 1 41.7497168094 10.0161071229 3.55966154606
542 1 40.8548422716 11.5203463225 1.22932112311
170 1 1.76735617519 12.1368996023 2.04318497779
523 1 0.698347251065 14.0864480743 1.27603057811
530 1 3.64460840212 14.2410842967 1.89972417307
4582 1 1.3346615387 13.9930211842 3.58117136331
522 2 2.49467164427 14.9989362073 0.019391020162
340 1 5.4620162709 13.5335702658 3.51418760165
344 1 6.24712928066 12.7629942585 1.35101125676
513 1 6.11242104091 15.2365532154 1.36142268572
532 1 7.70732779041 14.4332033631 3.07635008743
343 1 7.74566188389 11.9489884553 3.075618843
1683 1 10.834942063 11.9917739941 0.457579696556
337 1 8.51123103641 13.6173895658 0.888548146185
346 1 10.0258693207 12.8041054405 2.62682162671
515 1 9.98018850507 15.2734470157 2.60987196471
1868 1 10.7839665753 14.4536325762 0.422649659048
1685 1 14.6815500627 12.0240703399 1.75987689192
1682 1 12.3009561269 13.642683229 2.17716072221
1874 1 14.5285476171 14.4987226289 1.70735754341
1684 1 16.0725466265 13.8477679809 3.45989479974
1857 2 16.7013225432 15.3590368135 1.35110110078
1833 1 16.9011521018 12.9385552997 1.23186233422
1855 2 18.4986172613 13.2639801513 3.10792040224
3349 2 18.9972080404 12.7101855943 0.0610100005385
1681 1 20.2161320772 15.095383086 2.66948589556
3030 1 20.9393481854 12.6165552172 3.33539878945
2016 1 22.2085358845 13.4528316855 1.64286888135
3194 2 20.9254257788 15.0966836785 0.547049476747
3028 1 26.5766007014 14.2747937175 2.42263196109
3029 1 24.4216209187 12.2751934703 1.8666589978
3034 1 25.6978072365 13.4379610221 0.207808410664
3220 2 24.2655807288 14.5565772345 2.05267890719
3032 1 30.3802763209 14.2843595501 1.21647043834
3033 1 28.0896171756 12.6574249181 0.76325080599
3222 1 28.0723000947 15.1072620766 0.745780685152
3049 1 28.8564227873 13.4847399377 2.97654616741
3048 1 31.1299257515 12.6455442673 3.4366574977
4374 1 32.6555577232 13.4409151774 1.66982638788
3238 1 31.1421589303 15.1107554691 3.4298240215
4564 1 34.9135581669 15.0561796098 2.11943258422
4373 1 34.9320244809 12.5929966512 2.11205306692
4372 1 37.1770668481 14.1952681721 2.54277563114
4378 1 36.4528356289 13.37472337 0.346002841486
4566 1 38.6639891298 14.9816738951 0.775005999146
4377 1 38.7359643085 12.5347553711 0.754704216689
339 1 40.9041912563 13.9586720636 1.29878060586
4393 1 39.4293156185 13.3041184617 3.0137090288
4392 1 41.821767957 12.5584994862 3.25089281003
349 1 41.815528302 15.0083095678 3.33112886696
4562 1 39.43541177 15.7648082568 2.95454555707
4703 1 1.51046981907 16.1413040891 2.25789331563
710 1 1.14340231865 18.6471880922 2.82729737358
698 1 3.83250842441 19.1914020653 1.66592435413
509 2 4.08783526289 16.6980940966 2.10482965112
508 1 5.40540541274 18.5355991248 3.53312895252
512 1 6.15219879161 17.7262003864 1.31254173694
700 1 7.67030574009 19.3782171579 3.05773482227
529 1 5.4947150062 16.0024392766 3.65206318964
511 1 7.70494683661 16.9068197079 3.07476453425
516 1 8.42508883496 16.0838662753 0.872525608512
505 1 8.43200945394 18.5541468918 0.871320609309
514 1 9.96117038863 17.74964618 2.61202169414
1851 1 10.7153053217 16.9293237098 0.414697754999
2036 1 10.7035463107 19.4074011151 0.412350672483
1850 1 12.2203305253 18.6072315804 2.16498854878
1853 1 14.5011766536 16.9860604713 1.70065713706
1867 1 12.2475923842 16.1243016239 2.15806066465
2042 1 14.4835386745 19.4602918452 1.69645491322
1849 1 18.9919293909 16.2841602917 0.600151418789
1852 1 15.9911775205 18.6557048085 3.43824170328
1873 1 15.954163019 16.2546617453 3.49195989301
1856 1 16.7390782305 17.8608003384 1.22180942822
2044 1 18.1889473484 16.8966752907 2.86452311734
2023 1 18.2207614424 19.4839717753 3.01949585358
3026 1 19.0705875036 18.5679616907 1.01767211439
3037 1 22.5845735505 16.1045347769 2.04678227806
3198 1 22.6793512778 18.4369704759 2.28576081762
3209 1 20.543079831 17.6603290199 2.67865934476
2027 1 21.5104629232 19.5114779787 0.528582624997
3203 1 25.7436720983 15.9203689277 0.375382024569
3196 1 26.504897263 19.362311481 2.50407509971
3197 2 24.7234406444 17.6740005282 1.98799279363
3202 1 26.0558481944 18.3125079443 0.192092755909
3219 1 26.774277145 16.8963242237 2.53709357014
3388 1 24.0548062335 19.7545053748 0.806264888725
3218 1 28.9179765143 15.9455602518 2.91459008723
3200 1 30.4725145338 19.2136333436 1.22666133288
3201 1 28.2362044024 17.512639764 0.730025656647
3217 1 28.8190248404 18.447462022 2.95293332499
3221 1 30.4458278375 16.7454697022 1.19747617931
4543 1 32.6710899812 15.9076350769 1.66585437993
4542 1 32.6974005415 18.3862598671 1.65714584489
3216 1 31.1348022561 17.5970668043 3.39686608833
4541 1 34.930490586 17.534105832 2.10361658318
4547 1 36.4032192503 15.8361716474 0.365042101311
4540 1 37.1605988103 19.1245296826 2.54785265164
4546 1 36.450745701 18.3150508791 0.33472269163
4563 1 37.183096215 16.6637271481 2.53506869574
4545 1 38.7327025236 17.4630435256 0.782516751798
4694 2 42.6824719344 17.5642166325 0.790911873837
4544 1 40.9067209423 19.0429982941 1.38664099026
4565 1 40.8617768113 16.3877919621 1.1577852729
4561 1 39.4248207071 18.232060961 3.02745231357
4560 1 41.7276522109 17.3943916964 3.29238431986
4750 2 0.310260456616 20.4712913081 1.7314496908
860 1 0.477386118843 22.6573106378 0.521550336161
677 1 3.84443266373 21.8045450455 1.82641314566
4728 1 1.20170332072 21.5248325358 3.48696641616
836 1 2.28530943271 20.3385402025 0.0916818602444
691 1 1.95223923729 23.6176941841 2.1770947637
680 1 6.1904973179 22.681121629 1.31837887139
681 1 6.12127132469 20.1764198267 1.29692888634
697 1 5.4882395604 21.0223180889 3.50369602188
676 1 5.51636526881 23.5095443723 3.51110914352
679 1 7.72955701481 21.8575378937 3.03144974944
682 1 9.97708194581 22.7156379615 2.597356366
683 1 9.94995082496 20.2273830263 2.61077590821
684 1 8.44099865644 21.0329346224 0.855641840222
673 1 8.46494333929 23.5356023148 0.851028934147
2019 1 10.7113936292 21.8947118904 0.406832218227
2021 1 14.4849306649 21.9451784805 1.71058865947
2035 1 12.2149084549 21.0884122816 2.15973769179
2018 1 12.2306804214 23.5753056112 2.15426918182
2025 1 16.7600420639 20.2990369485 1.25806213891
2024 1 16.7844195893 22.7462978608 1.27498510387
2041 1 16.0110340289 21.1153797942 3.42370383741
1854 1 18.528106278 21.9539884855 2.8528428756
2020 1 15.9304477313 23.5554288744 3.44801912713
2212 1 18.9828356825 20.8801309144 0.512506435866
3377 1 20.4927361853 20.0912786733 2.62939088609
3367 1 22.7702587461 20.9008642843 2.35119500814
3373 1 20.7394816843 22.2027192383 1.11378803435
3363 1 22.607113686 23.4514912904 1.96713443439
2043 2 21.0449696465 22.3553828396 3.45779680205
3362 1 22.8175804732 21.8365524792 0.0449360039532
3365 1 24.6974728165 22.2989229192 1.94054126808
3371 2 26.1148904474 20.5686433337 0.38751934728
3387 2 26.713056473 21.8865913424 3.01135384145
3390 1 28.3009270435 19.872141902 0.813858487209
3369 1 28.0743948277 22.4332870548 0.786560116481
3389 1 30.3669254364 21.695357003 1.22286776431
3386 1 28.8854932729 20.8946472851 3.00614381276
3385 1 28.8924729816 23.3429589429 3.0187251451
4711 1 32.6613503585 20.8711808908 1.67077599119
4710 1 32.685813474 23.3267219416 1.68827922806
3384 1 31.1561150141 22.5141379071 3.43315273379
3406 1 31.1376161547 20.0577003432 3.43515751112
4732 1 34.9198830928 20.0209172295 2.09906516252
4709 1 34.9277295281 22.4911114413 2.13448837967
4715 1 36.4621578541 20.8038889431 0.357329470173
4714 1 36.4310128684 23.2745872838 0.410886716927
4731 1 37.1674679085 21.6000715588 2.56751348169
4734 1 38.695721684 19.9082007909 0.851804030235
4713 1 38.6820634602 22.4007190226 0.915976706236
703 1 41.6828653823 19.866594655 3.56402624472
4733 1 39.4351062434 20.7438311244 3.06229927334
4729 1 39.6517597479 23.2157922416 3.20243851223
675 1 40.9384424161 21.5731626097 1.2691165102
4918 2 42.3159839613 23.2402522489 2.74694580566
686 1 2.18770561949 26.1006960819 2.14930007225
878 1 0.109611103453 25.3516257752 1.78318970389
1004 1 2.36809857872 24.96934362 0.0464285844448
845 1 4.24718905301 26.8372445534 1.74952741594
866 1 4.12099929707 24.341821608 1.71035659111
849 1 6.29944580263 25.2147985403 1.31923581129
865 1 5.5837075079 26.0368257369 3.56126460145
868 1 7.76858255815 24.3484162206 3.03128802547
847 1 7.77865760037 26.8554477968 3.06192955372
851 1 10.0071353544 25.2038095556 2.59586718593
852 1 8.50825011336 26.0472941394 0.843915539963
2204 1 10.7215515262 24.3853941322 0.402233166167
2187 1 10.7388015156 26.871245538 0.409712825511
850 1 10.0047096804 27.687061958 2.61257868173
2189 1 14.5226021024 26.8839139173 1.73570559961
2203 1 12.2507880898 26.0589033281 2.16457668773
2210 1 14.4997683112 24.4251725075 1.69901226453
2017 1 18.9560980126 23.7505592228 0.763208002865
2022 2 18.0345356843 24.2401405023 3.03379301798
2193 1 16.8308234591 25.2673481284 1.24550547817
2209 1 16.0772913798 26.0221582908 3.4742885946
2195 1 18.432309698 26.7316930005 2.98538511839
2352 1 19.3872292129 26.2232299981 0.752099496656
2192 1 16.8335396175 27.6832841811 1.32476860684
3541 1 20.3658494447 24.5241634223 2.61917907261
3534 1 22.149832621 26.0537947421 1.80509855422
3530 1 21.3815484033 24.5465253721 0.126646043814
3370 2 26.0673156497 23.7799213777 0.433296984116
3364 1 26.6699450919 24.2539725408 2.65659648275
3539 1 25.974491976 25.9893256901 0.434062495762
3555 1 26.7049577373 26.723934161 2.61847798876
3556 1 24.4238555562 25.0277417691 2.2015284408
3533 1 24.4152505555 27.5391723758 2.07427062837
3368 1 30.410947483 24.1286383269 1.26705741031
3554 1 28.9302818255 25.8156216613 3.01952691284
3557 1 30.4596805936 26.6094005359 1.26784067761
3558 1 28.2074294962 24.9683337609 0.834974590818
3537 1 28.2374810327 27.4592905442 0.836760905745
4879 1 32.6797733058 25.7837241464 1.70620071771
3552 1 31.1986716132 27.4442668981 3.45588395771
3574 1 31.1885119813 24.969167474 3.44426505978
4877 1 34.9174713269 27.4281640555 2.13388379981
4900 2 34.898772492 25.0122984384 2.03387961297
4708 1 37.2056477591 24.0593896587 2.65450390822
4883 1 36.4293442406 25.7393147128 0.366302471634
4899 1 37.111613329 26.5329744614 2.60492030947
4881 1 38.6058860355 27.3349824124 0.807026324907
4902 1 38.6310497402 24.8703852096 0.850466181581
4712 1 40.8383430707 24.0156445109 1.18493475789
4901 1 40.8167665138 26.4940059492 1.2382234463
4898 1 39.3015628359 25.6616890125 3.06213759737
859 1 41.4256872574 27.3811948023 3.33747985187
1027 1 0.598707236235 27.869996486 1.55735070946
5207 1 0.386763713493 30.7315801029 1.42981329862
5086 2 0.0295914412996 29.1625894866 3.20851653238
848 1 6.34751564645 27.7169473834 1.3196291291
1034 2 4.20878100051 29.1952952755 1.31564787973
844 1 5.38391495281 28.5340881591 3.4806325149
1017 1 6.3160665277 30.1978982657 1.24674828266
1036 1 7.6884627955 29.3384599939 3.07162655103
1033 2 5.67191697088 30.9702107193 3.67237312794
841 1 8.52003404382 28.5562397029 0.865246299553
1019 1 9.96089592468 30.1560411572 2.61256892211
1020 1 8.51469667018 31.0391670376 0.858093279633
2372 1 10.7601415954 29.337535132 0.429300337976
2186 1 12.2436946229 28.5191626691 2.18180976087
2371 1 12.2112247175 30.9846745114 2.24535008652
2378 1 14.5039249628 29.3187749059 1.800040817
2516 2 13.0215285079 30.2216675827 0.132196702696
2188 1 16.0338264892 28.4514618144 3.52212846845
2377 1 15.9227389319 30.9420924796 3.52486192543
2360 1 16.7094563248 30.1381384377 1.35577619622
2361 1 18.2194518895 29.1591996203 2.97905780433
2191 1 19.0738168956 28.6554695261 0.808487016838
2194 1 18.8588647302 31.1615196034 0.899374837724
2211 2 20.5903387437 27.8733945514 2.27281642119
2363 1 20.4081955185 30.1246290147 2.44605524127
3531 1 22.2503114408 29.0655500367 1.25248218935
2682 1 22.6525390919 31.2494633892 2.50639491256
2342 1 21.0985628498 31.6422987637 0.589768735184
3551 1 22.7812043929 29.08522913 3.69594976867
3532 1 26.7125229656 29.1406873176 2.56573589943
3538 1 26.041322853 28.3409023248 0.344662083269
3707 1 25.9731737584 30.7854535618 0.244304807574
3724 1 24.5351044245 29.916238505 1.96007014262
3723 2 26.8006244415 31.5236884662 2.45266958984
3709 1 23.6420667079 31.4485463693 0.0128223430398
3536 1 30.4589183997 29.0979368616 1.26133892783
3553 1 28.9538393991 28.3032649385 3.02397048854
3722 1 28.9912913207 30.7713240718 3.00310015753
3726 1 28.2287187808 29.9522296755 0.805504954944
3725 1 30.4764943081 31.5733468432 1.22664085581
4878 1 32.6894707288 28.2452038502 1.69649254331
5047 1 32.7025212472 30.7310034845 1.67823322796
3742 1 31.2119304501 29.9248670611 3.44945583888
5068 1 34.9349121253 29.8993418467 2.10813967459
4876 1 37.1096289527 29.0370263365 2.55119189291
4882 1 36.3994503565 28.2236525903 0.367108421094
5051 1 36.4134346987 30.7067564912 0.333910084771
5067 1 37.1571314019 31.5121049872 2.53747128127
5070 1 38.6243729759 29.7896330276 0.75895499149
1010 1 40.82119457 31.4367590553 1.13276098474
4880 1 40.8986936976 28.9974728425 1.40836855308
4897 1 39.2222074199 28.1225883486 2.99642513284
5066 2 39.2543289511 30.5849001149 2.81433416344
5048 2 2.23399023952 31.8351249068 1.87873605593
1178 2 0.442165670149 34.6379434122 1.55338434455
1013 1 4.40858510809 31.6600987807 1.47879242378
1202 1 3.94246117546 34.0229679369 1.60952920855
1016 2 6.44530249198 32.8339334846 1.24804608088
1185 1 6.08607642613 35.1400886645 1.31130110547
1025 1 5.33732975862 33.3505508606 3.52235772666
1204 1 7.65543175219 34.2733813912 3.05782875575
1015 1 7.76601197881 31.8211658343 3.05608708065
2355 1 10.7683118881 31.7657454744 0.438440705333
1009 1 8.58581474573 33.517572338 0.879077118733
1018 1 10.004830204 32.6320643635 2.63033479049
1187 1 9.93635905142 35.0781553579 2.63568366528
2540 2 10.8906554983 34.1898349348 0.465971855714
2357 1 14.4697560835 31.8106483776 1.82320627275
2354 1 12.2648492905 33.4383624074 2.2617779838
2546 1 14.5319202152 34.2535207639 1.89383043812
2515 1 12.9982986839 32.6268510094 0.0479014078409
2684 1 13.0502255459 35.0783303089 0.106865972237
2358 1 18.1739231275 31.6768375556 3.04149357531
2688 1 16.7738527777 32.6457045964 1.42822156513
2529 1 16.8175894056 35.0090185352 1.53281935921
2527 1 18.2948858591 34.0664987889 3.38910226228
2356 1 16.037325023 33.3951966026 3.68901582342
2673 1 19.4369319001 33.7936583335 1.31706850574
2362 1 20.6154094975 32.4286080208 3.33767106972
2531 1 22.1553998864 33.4260830948 1.60673335813
2532 1 20.7699923789 34.8403009361 3.37504627547
3700 1 26.730133317 34.0680643704 2.5532843706
3701 1 24.6110016177 32.495183553 2.06901954417
3706 1 26.024283086 33.2450093653 0.335838332854
3892 1 24.4718024148 34.8936617937 2.12619193315
3704 1 30.4601878884 34.046323532 1.22582821568
3705 1 28.2548398323 32.4230088844 0.772272686282
3721 1 28.9661738165 33.2362494057 2.98703250885
3894 1 28.1982602304 34.8848685322 0.800830987102
5046 1 32.7047663011 33.2053926315 1.66715548452
3910 1 31.2384252976 34.8684408073 3.43000037222
3720 1 31.2169011451 32.3998077863 3.43336163774
5045 1 34.9348287725 32.3527413118 2.12568244405
5236 1 34.9891263818 34.8205388204 2.10575817972
5044 1 37.258954977 33.953429691 2.56605537094
5050 2 36.3680282075 33.2335959022 0.435551729423
5238 1 38.6864315597 34.7146236884 0.761531996997
5049 1 38.617765832 32.2739801588 0.735751814925
5065 1 39.4753538981 33.0114661308 2.9439644491
5237 1 40.9010948336 33.8120913819 1.21345179485
5254 1 41.7404914622 34.6614950503 3.42702312
5234 1 39.5033985465 35.4882641187 2.92969523101
5064 2 41.7916605337 32.2820536033 3.22147897748
20 2 0.109908009294 37.8045533681 1.69609955617
1181 1 3.69098460242 36.394890553 1.96225112644
1190 1 1.21597424625 36.1607722233 3.3885707309
26 2 4.14555766378 38.6717518138 2.10210760572
1201 1 5.40833931214 35.7689158042 3.56086759646
1184 1 6.19248730491 37.5221564447 1.32469916507
1180 1 5.5544483113 38.2184298856 3.6653618401
28 1 7.72150719035 39.1860378856 3.08591445435
1183 1 7.64312749396 36.7302412786 3.11490437805
1188 2 8.35501872935 35.9929464551 0.937364494214
1177 1 8.55476162664 38.3835692553 0.932627361703
1186 1 9.95405003097 37.5222647431 2.68603386657
2523 1 10.7419640096 36.6917096679 0.514048223982
1364 1 10.8490305652 39.1703423387 0.500373299159
1370 1 14.4685549812 39.207734261 1.96080154426
2539 1 12.225105634 35.8936819567 2.28161004087
2522 1 12.2325185782 38.3562052015 2.30877601522
2525 1 14.5157596201 36.7201862627 1.95300237095
2683 1 13.0014602886 37.5182861794 0.131900291463
1372 1 18.4382515876 36.3621300004 2.70357885799
2528 1 16.6985795401 37.5795167632 1.66530104393
2716 1 19.2896497479 38.6285395152 1.27750592512
1351 1 18.5214354585 38.6579598084 3.60908688222
2545 1 16.027910975 35.8082949304 3.69197713902
3702 1 22.3126392442 35.823432033 1.65770154878
2521 1 20.0241496127 36.2937492082 1.09637223306
2530 1 20.724315907 37.2413914456 3.2519416217
3865 1 22.0823598139 38.336834628 1.64101284273
3875 1 25.9211677816 35.7329572036 0.368992536377
3869 1 24.4040350378 37.3602525078 2.05689002242
3874 1 25.9368688714 38.1734087105 0.344690384059
3891 1 26.7111991943 36.5388575793 2.55502927769
3885 1 26.7772493305 38.9993555596 2.54058331042
3890 1 28.9685055678 35.6982762374 3.00216461895
3872 1 30.4920968155 38.9846119926 1.23460206625
3873 1 28.2120440001 37.3509537292 0.788217852523
3889 1 28.9999450518 38.1641119345 3.00487076508
3893 1 30.473750414 36.5141868705 1.23513071608
5215 1 32.7360188228 35.6713312153 1.66336655879
5214 1 32.7441621257 38.1430614259 1.66533478127
3888 1 31.2506369865 37.3351836019 3.43868360147
5219 1 36.46777998 35.638741555 0.333205102359
5213 1 34.9963041088 37.2893175095 2.0922922009
5212 1 37.2351491856 38.910222556 2.51593695911
5218 1 36.4939533615 38.0909820588 0.325803217254
5235 1 37.24709069 36.4181333656 2.52703311837
5217 1 38.7489112921 37.1987281179 0.775896370316
4078 1 40.8680565592 38.7818379616 1.24139998109
5233 1 39.4474675457 37.9962760352 2.97771404581
1179 1 41.0223908931 36.2578258971 1.27293325146
5232 1 41.704596095 37.2231827661 3.69202909765
18 1 2.88777626518 0.761413409178 5.04825602094
14 1 0.887350291249 3.74154356971 4.25744236875
37 1 2.5359064717 2.90559107853 6.028029149
1208 1 0.347732686553 2.82436296322 7.05199084575
32 1 0.382917262676 1.54559877682 4.86718246938
1206 1 1.03903728572 0.601083494718 7.02484770533
16 1 4.77992815533 2.07525353774 5.62677682052
23 1 6.96489883575 2.90257761968 5.25811365799
24 1 6.96927691367 0.437679401395 5.27739102953
22 1 8.50397974978 2.09173321235 7.05074164214
27 1 9.23097214863 1.2859450388 4.84464479552
1375 1 10.7480154089 2.95214159902 6.62061442156
1376 1 10.6791019077 0.480880333153 6.65423839014
6 1 9.21910692917 3.75005129198 4.83586175511
1358 1 11.5073233034 2.13277907679 4.40879486001
1361 1 13.7690930927 2.99366503857 3.96588064642
1362 1 13.5620617535 0.487572911855 4.0752391085
1360 1 15.1015669324 2.24790271127 5.87982220291
1381 1 12.8843868414 1.37105008245 6.25591861369
1357 1 12.9871138701 3.79658891068 6.22209939079
1348 1 16.2570468111 3.55747767872 3.71059150241
1359 1 17.2047336193 1.35172495384 5.09894614866
1368 1 18.9400343483 1.9819204698 6.97245341803
1554 1 16.9925299338 3.64302711528 6.55960024266
1367 1 18.8626155006 2.97726576921 4.82203340023
1371 1 19.4155690033 0.614419369048 5.12276569884
1354 1 22.9691100077 1.88158749556 3.99902988623
2691 1 21.422745375 3.3899997703 5.73876359052
2706 1 21.5300449884 1.0366219899 5.87825312264
2711 2 23.967136838 0.303370864943 5.99131207419
2731 1 23.7737711353 2.81122104863 6.11130589146
2695 1 25.2939641345 1.13705175799 4.300455326
2730 1 26.0152655568 1.93580118653 6.53466704922
2704 1 25.2292866034 3.59002084184 4.34176709195
2733 1 27.5305030833 0.270061037608 4.75516232704
2708 1 27.4913519138 2.7454310898 4.76606276359
2732 1 29.7489211822 1.91465102717 5.20491980908
2729 1 28.2574585923 1.0972206288 6.97327899377
2728 1 28.2511807275 3.57363454557 6.97678797942
4055 1 33.4880719294 1.88943506352 3.86354975166
4048 1 34.2440949092 2.7243641137 6.0622604167
4050 1 32.0042324536 1.08466663162 5.64105141722
4075 1 34.2534979484 0.247514562954 6.06168106446
4049 1 31.9926650996 3.55851003475 5.63083765535
4052 1 38.015719828 2.67885172985 4.72187754693
4053 1 35.7457575707 3.52079179141 4.30404897689
4054 1 35.7265392636 1.04600731803 4.27693578762
4074 1 36.4785553197 1.89279677808 6.46503315475
4077 1 37.9546679201 0.207983713383 4.66844648283
4072 1 38.7040969067 3.54165863557 6.8627380615
4073 2 38.6583944581 0.977048316691 6.80588401205
4076 1 40.3242151505 1.94339820252 5.1228564141
5247 1 41.1138853152 0.531909934065 7.02320420091
4095 2 40.9226364846 3.09958086969 7.31490887227
392 1 3.06393003168 4.83274127718 3.91694394773
13 1 1.69942349065 5.0476145313 6.23123332097
224 1 3.01849228936 6.83236705742 5.46851530123
200 1 0.509452495743 7.16141532093 6.16527086833
211 1 4.59014742713 4.4619763957 5.73073480371
184 2 5.15253292451 6.80012514768 5.99654181608
192 1 6.91516385398 5.33162006101 5.25478639983
191 1 7.01950475959 7.81737353219 5.266561075
190 1 8.50153797571 7.01970285548 7.05052475286
195 1 9.18565313901 6.21263322685 4.84144690497
213 1 8.43659865202 4.55859179493 7.03121454129
1526 1 11.4830976509 7.06545881427 4.41045369695
1544 1 10.7437282566 5.40037274797 6.60859297033
1550 1 11.4790525737 4.59375617184 4.39740506543
1543 1 10.7072909708 7.87334885708 6.60127411483
1530 1 13.7631440744 5.46398615693 3.922682531
1549 1 13.0122680705 6.2539499398 6.14338870417
1555 2 15.0160246354 4.61469520768 5.58493720361
1528 1 15.3852279612 7.14365965033 5.79712310342
1536 2 18.0337956889 5.06949647788 4.93739655275
1539 1 17.6644502806 6.331593488 7.33361418683
1522 1 19.3297836154 6.91744044777 5.55361157082
1350 1 19.4481787781 4.46284200246 6.5611112188
1523 1 20.5250399964 5.02942898847 3.92050428194
2874 1 21.5709741901 6.04683217104 5.76819370725
2879 1 22.951674025 6.83148920404 3.93639316794
2873 1 22.910741371 4.35641376524 3.96773170741
2899 1 23.7639626604 5.25584492373 6.11524290799
2878 1 25.2368410327 6.02769641461 4.35193321506
2898 1 25.9798984774 6.88076787632 6.55428907931
2703 1 25.9958689909 4.40468543034 6.55307947107
2872 1 23.7286284883 7.71717112834 6.09220917065
2901 1 27.4896814795 5.22014870035 4.7841384896
2707 1 29.7397554821 4.38988330297 5.20577471666