ITEM: TIMESTEP
38000
ITEM: NUMBER OF ATOMS
5376
ITEM: BOX BOUNDS pp pp pp
0.0 42.7297273569
0.0 39.5600404449
0.0 37.0050293879
ITEM: ATOMS id type x y z
5216 1 0.720753869378 1.12640162035 1.48496827299
4246 2 0.41797194108 3.43814354176 1.58317838229
1207 2 1.84366077353 0.504163348783 3.27344312988
186 1 3.25362714449 2.77174343673 3.63570475553
5 1 4.05110727575 2.1708626443 1.46151242284
8 1 6.30200258114 2.92835703767 1.23503529487
9 2 6.05437983347 0.427422125425 1.11540284254
25 1 5.39178510782 1.25113523654 3.39380000292
4 1 5.48599688825 3.69183343615 3.3928646362
7 2 7.75636129949 2.1655858695 3.10893774531
10 1 10.0054320804 2.91984219374 2.6660032884
11 1 9.82684703642 0.459258412106 2.61336385127
12 1 8.39241489517 1.29574427227 0.852721318942
1347 1 10.6580832887 2.11754947459 0.438549166003
1 1 8.55933788304 3.74501544286 0.905328394392
1349 1 14.3637449457 2.15003014847 1.83941583325
1363 1 12.0691768561 1.29377812164 2.20700959136
1346 1 12.2845290651 3.76559912822 2.26728312199
1507 1 12.9210373943 2.93381224499 0.0567707615785
1508 1 12.8909598189 0.466155610554 0.0464443234481
1369 2 15.4864613887 1.12637503525 3.59058179319
1352 1 16.600843699 2.79196869645 1.30699505733
1353 1 16.5083372889 0.331061643486 1.29428753031
1540 2 17.9577937059 2.79241849178 3.04479921847
1355 1 18.9212771722 1.17088946802 1.28513730511
2998 1 19.0703408383 3.75720051548 0.130432659889
1513 1 19.9578966673 3.17348818104 2.13465899296
2710 1 21.7442994888 1.08349948645 2.26503958935
2689 1 22.1999619892 3.53663280532 2.06845415156
1490 1 21.1970689727 2.15748841494 0.195150904876
2694 1 24.5463722947 2.74134005936 2.25907065007
2699 1 25.9942789426 1.05453012481 0.378846559796
2698 1 25.9487449798 3.58336049541 0.400093268915
3868 1 26.8040290364 1.8961824551 2.5889380554
2709 1 24.5268768765 0.287439591538 2.17271344025
2693 1 23.6327757158 1.6182812399 0.312233004455
2715 2 23.4178492691 3.85367181784 0.266469045292
2697 1 28.2577685806 2.75780342143 0.840691716216
2714 1 29.0681461483 1.09644782021 3.04245831631
2717 1 30.5412593465 1.93109743152 1.28880826953
2718 1 28.2724468627 0.297453366791 0.864035713946
2713 1 29.0920064422 3.56304090745 3.04184291687
4039 1 32.8088630604 1.10006815997 1.7235979769
4038 1 32.8371137741 3.56647357113 1.73173931951
2734 1 31.3255852745 0.278065725771 3.48362452094
2712 1 31.3476464638 2.75262086082 3.49089702324
4060 1 35.0654572333 0.261596126566 2.13695469563
4037 1 35.0907376139 2.72146071043 2.1592715397
4043 1 36.5614888866 1.07365530983 0.393421908456
4059 1 37.3647793799 1.87672761694 2.56708557309
4042 1 36.5377602453 3.52041912526 0.38955653798
4041 1 38.8315856446 2.69653622907 0.804172474207
4062 1 38.8448386241 0.242457481547 0.818595959238
4058 1 39.6774840325 1.05886201644 3.01216988961
4057 1 39.5543686427 3.52806171397 2.99219407212
4196 1 41.1120169349 1.8649654135 1.24233749116
4056 1 42.0204000156 0.255777108498 3.38545505317
17 1 41.8164590711 2.74702456192 3.46329147919
193 2 2.35271370024 6.33816550454 1.7228001439
187 1 0.273036974085 5.76221247263 1.52576693037
206 1 1.11783714125 6.44166970611 3.6254164236
173 1 4.39636168558 7.08018157594 1.70155491675
194 1 4.01120776527 4.5728930774 1.56344890234
177 1 6.30090475454 5.40803492458 1.30462811794
172 1 5.55291895282 6.16290321251 3.57107888077
196 1 7.7489701322 4.57430616671 3.08197448811
175 1 7.80217455886 7.02085023695 3.11876197969
179 1 10.0309209944 5.38150953972 2.69262928834
180 1 8.60280301037 6.21888958208 0.91554487967
1532 1 10.8216190362 4.58854859365 0.485292981112
1515 1 10.8931974943 7.05703715776 0.530197256165
178 1 10.0672897341 7.8665171941 2.7083174517
1517 1 14.4398746927 7.15496495684 1.94565071841
1531 1 12.3143373274 6.21809723493 2.32324600976
1538 1 14.725886047 4.65040741307 2.012342169
1676 1 13.1359642131 5.41299753023 0.15043989947
1519 1 17.6912200773 4.8271405946 1.96135976905
1521 2 16.580285151 6.73903398674 1.97814062046
1839 1 18.4348128501 6.50618884523 3.55070386073
1520 1 18.6622160749 7.48120741355 1.23705991174
1524 1 20.0024820457 5.49942800601 1.67874031633
2868 1 22.4358861295 5.98329874089 1.73879803957
1680 2 20.7767515985 7.16660466528 0.323138214459
1842 1 20.6727274484 7.62331463068 2.860586193
2692 1 26.8218517808 4.34945503402 2.57696676044
2867 1 26.2194065827 6.09335097301 0.427117094003
2883 2 26.9816302188 6.74453858268 2.61751751626
2884 1 24.6118608001 5.20836633003 2.13776570882
2857 2 24.1680797724 7.01423613538 0.345931683053
2861 1 24.7512306754 7.77895685344 2.35566756276
2696 1 30.5903020685 4.39869835481 1.29971089532
2882 1 29.13105525 6.03674022392 3.07051777062
2885 1 30.5592196178 6.86991286053 1.27167672713
2886 1 28.3637651626 5.20006102978 0.863306835912
2865 1 28.2865008761 7.6734001163 0.826903788224
4207 1 32.797096079 6.03436459547 1.71046457981
2880 1 31.2732207079 7.70703502387 3.49466052711
2902 1 31.3516547471 5.2270853702 3.51069117621
4205 1 35.0106472346 7.66771997898 2.15222144699
4228 1 35.041704516 5.19364190673 2.14877178254
4036 1 37.2890011747 4.34342526614 2.54707654617
4211 1 36.5093461675 5.99961456931 0.380249097526
4227 1 37.2450435408 6.83035898901 2.58505063349
4230 1 38.7639570609 5.17540479127 0.802353847926
4209 1 38.7159221728 7.63838524393 0.821565642702
4061 1 40.9896056932 4.33579648755 1.20756162111
4226 1 39.4937139008 6.00096190253 2.94687066887
4397 1 40.9706721188 6.82998544457 1.20973697093
182 1 41.757041724 7.76232012625 3.3814109062
31 1 41.7080534549 5.1975902398 3.45688782238
4229 1 0.470969639093 8.17825811239 1.40867306954
374 1 0.343808076016 10.8538931652 1.78684377752
181 2 2.06515623032 9.55517980445 1.92203628699
176 1 6.44595542213 7.92383397464 1.30048496804
355 1 4.20836922293 9.58034131655 1.68711123102
361 1 5.53131401198 8.61695046087 3.55593375025
345 1 6.40237471529 10.3633173675 1.39211977583
353 1 5.67957445116 11.075480007 3.6622900523
364 1 7.80546917183 9.48951535365 3.14395919884
169 1 8.6559476182 8.72633236226 0.929225566397
347 1 10.0813100646 10.3494983345 2.70428331784
348 1 8.61397771843 11.2050518813 0.946122150026
1700 1 10.9072043226 9.54881169826 0.522127232153
1675 1 13.1483833327 7.91925901116 0.102581406485
1514 1 12.3188169006 8.71043032688 2.29853525126
1699 1 12.3385414151 11.1941211996 2.26867735491
1706 2 14.5534473169 9.59395301536 1.92152612015
1844 1 13.1364511309 10.3890536676 0.0934925480135
1516 1 16.1604211848 8.61800845065 3.68217715084
1689 1 16.6897961036 10.5521437861 1.52387502659
1688 1 18.2682823032 11.6505639932 3.35493131696
1876 1 19.4195985693 11.7051872319 1.21731371747
1848 2 18.6611437298 9.64365365861 1.88683139171
2862 1 22.5334004721 8.4824224184 1.59414078281
1692 1 20.8084479087 9.98263431757 3.18606583112
2010 1 20.4231500634 9.42598956613 0.576836281313
3031 1 22.0297120221 11.0082609015 1.58779651902
2860 1 26.7185873 9.30588405476 2.60204972957
2866 1 26.0519182381 8.58323570528 0.335600156715
3035 2 26.3742967149 10.9571272099 0.642915283983
3052 1 24.4417795302 10.3720233823 1.88092829972
3051 1 26.8853004717 11.7743379648 2.66036877471
2864 1 30.560034997 9.3262174259 1.29159858428
2881 1 29.0020017241 8.52140494676 3.03365330348
3054 1 28.3850408354 10.1091474962 0.870699024426
3050 1 29.0732682762 10.9864769873 3.08623834369
3053 1 30.4642930467 11.8151100402 1.25696418183
4206 1 32.7780242353 8.50225035848 1.72070983993
4375 1 32.7315859954 10.9820043743 1.69514816641
3070 1 31.2888807795 10.1722217614 3.49392187537
4396 1 34.9823254193 10.1396951579 2.15455301321
4204 1 37.2348552705 9.31172828817 2.61992241176
4210 1 36.4770091179 8.47565443921 0.399035047859
4379 1 36.4736428635 10.9608318708 0.401407332152
4395 1 37.2115169323 11.7841728592 2.61676011097
4398 1 38.7232722539 10.1154336391 0.835073635415
4225 1 39.4714626973 8.4723803387 3.00530246623
4394 1 39.3311372717 10.8836777159 3.03753885657
4208 1 41.0140426337 9.32499487805 1.33568188311
4224 1 41.5179581688 10.7068599918 3.63029946947
542 1 40.9524630505 11.8137231112 1.36096768878
170 1 2.48812096926 12.0024050394 0.981592099481
523 1 0.283903869877 15.6263806917 1.5317276538
4392 2 0.508575852242 13.0842617213 1.50243803929
4582 1 1.45794717998 14.1867083943 3.52742388232
4376 2 2.44432519997 15.7028582232 1.71107179526
341 2 4.47639700485 12.002472031 1.88910164299
530 1 4.01640508337 14.2280352674 2.08507880969
344 1 6.46245066179 12.8335097865 1.427068214
513 1 6.22189466003 15.2977664759 1.39896077308
532 1 7.74242239875 14.4214628826 3.13080864878
343 1 7.9066997039 11.9595785154 3.19166450705
1683 1 10.8650678096 12.0219187187 0.508645603934
337 1 8.60353626953 13.6773991418 0.939874727065
346 1 10.1064594114 12.8338685152 2.69966597405
515 1 9.97616543452 15.2942996581 2.66205729467
1868 1 10.8240737605 14.497656185 0.47877257267
1685 1 14.5875756287 12.0826690914 1.87111278391
1682 1 12.3479109916 13.6748373136 2.24668208995
1874 1 14.6518547181 14.5267577849 1.83844863947
2012 1 13.0811415873 15.3319703064 0.0428988546249
1843 2 13.1127161668 12.8729171136 0.040070295603
1857 1 16.8795001855 15.4245459018 1.19988469714
1833 1 16.735956806 12.9132134139 1.42078378694
1855 2 18.4413418383 13.923508407 2.42108208255
1681 2 21.6397387083 14.7186620304 2.08488597561
3030 2 20.7541213793 12.1606065789 3.54455647882
2016 1 21.5258894783 13.1782702418 0.52888120462
3194 1 19.8666570696 15.3172906039 0.968192965117
3175 2 23.6770542543 12.4690847205 1.2368605189
3028 1 26.7106591243 14.4213082544 2.54030045836
3029 1 24.9135937428 13.1098112813 2.91438311593
3034 1 25.8575850115 13.3660249171 0.31587929052
3220 1 23.9965131899 14.7722687646 1.28371683796
3032 1 30.4868451372 14.2982028752 1.25399029109
3033 1 28.2213547713 12.6746155618 0.817670547588
3222 1 28.2496368931 15.1548647403 0.834271416078
3049 1 28.9489368092 13.4855912654 3.01231422692
3048 1 31.2217933633 12.6579893602 3.45215735022
4374 1 32.7315889378 13.4512758362 1.68919181222
3238 1 31.2793947536 15.143147693 3.4362244529
4564 1 35.0391172298 15.0739731958 2.1314197252
4373 1 34.975025849 12.6097556697 2.14424440836
4372 1 37.3244706948 14.210624988 2.61408173752
4378 1 36.479902312 13.433577506 0.405706089305
4377 1 38.7365342959 12.6138100027 0.898984743836
4566 1 38.8004686918 15.0615271039 0.872193077095
339 1 41.0118420395 14.2685707301 1.27106288407
4393 1 39.8120417013 13.2316407059 3.22472071888
349 2 41.6492076388 14.8982690437 3.55196318859
4562 1 39.4374965053 15.6868165792 3.06762086816
4703 1 1.17473350519 17.8508267974 2.3568350257
4694 2 1.41648801297 19.2445381356 0.618467942467
698 1 3.60643251587 19.4355333487 1.6591934743
667 1 2.39602181876 17.2118342478 0.0394411513923
509 1 4.07053205271 17.1104234659 1.98681890937
508 1 5.22798698773 18.4963777841 3.60132634887
512 1 6.08711248047 17.8191060319 1.20419085215
700 1 7.51148732063 19.366962156 3.04703668914
529 2 5.47578239708 15.8834606226 3.57599402669
511 1 7.60316837721 16.9227535519 3.07788569006
516 1 8.44674729678 16.1322452091 0.913749735639
505 1 8.36653228125 18.5924647677 0.874512102214
514 1 9.8653312056 17.7592463985 2.63717889758
1851 1 10.7150306828 16.9540140753 0.461284343326
2036 1 10.6296163083 19.4322000285 0.432646589993
1850 1 12.1281660164 18.6031995303 2.18188880192
1853 1 14.4836402439 16.9802909047 1.74089060648
1867 1 12.2345574396 16.1276823668 2.21073881824
2042 1 14.3914533118 19.4386754422 1.72562899781
1852 1 15.7806555474 18.6731694123 3.5386673647
1873 1 15.8729647228 16.2325639913 3.57337810788
1856 1 16.7487310001 17.8375791755 1.38138328586
2044 1 18.182823044 16.2006807941 2.96428268386
2023 1 18.2282117141 19.1334791231 3.51929363904
3026 2 18.5742892427 19.4153387936 1.39904839131
1849 1 18.9679870523 17.2504433484 0.366684828781
3037 1 22.3562810883 16.7954981402 2.02253884909
3198 1 22.4969828589 19.4516422215 1.30310029948
3209 1 20.2230544142 17.9186591405 2.31925774848
2027 1 20.3657421223 19.3897508053 0.115277643048
3203 1 26.0248051525 15.8788396644 0.544646319564
3214 1 24.9241349088 16.0417271216 3.14286686453
3196 2 26.9998596194 19.3736313162 2.669406376
3197 2 23.9616892373 18.3859955411 2.67459200422
3204 1 23.9828194221 17.0908960695 0.378913285473
3219 1 26.9870024891 16.8895300281 2.84944163734
3218 1 29.0773314696 15.982399566 3.02855374122
3200 1 30.6106474047 19.212050342 1.31299652865
3201 1 28.2136828104 17.6586528064 0.880965245977
3217 1 29.1028499455 18.4783514545 3.09028961639
3221 1 30.5080202927 16.7817309108 1.23963032658
4543 1 32.7717054297 15.8979187366 1.66557895743
4542 2 32.8959975352 18.2914713796 1.57336002464
3216 1 31.3085347227 17.6075235052 3.42532195438
4541 1 35.079142183 17.5435713542 2.11147106316
4547 1 36.5432384925 15.9051756536 0.390752395139
4540 1 37.3205175792 19.170113389 2.56549741901
4546 1 36.5584890938 18.3661659512 0.335081588698
4563 1 37.2916609641 16.713532922 2.61672147233
4545 1 38.7750392878 17.495637324 0.92929643032
4544 1 41.8945145536 19.2765074312 1.93887209673
4565 1 41.0633151557 16.9651584539 1.80031731771
4561 1 39.6443033016 18.3285790748 3.17861195715
4750 1 1.354561785 20.9464646598 2.25672696936
691 1 1.87525195903 23.4578695254 2.23731977586
860 1 0.236117977528 22.8492570296 0.714511146206
677 1 3.83819644283 21.9729895104 1.736695735
836 1 2.27471413005 21.5086317486 0.0075946639505
680 1 6.14773930847 22.6868845022 1.203915611
681 1 5.99425778721 20.1982620349 1.24072607831
697 1 5.35191368575 20.9093366073 3.41231194138
676 1 5.5351546605 23.3533470637 3.40307945227
679 1 7.58678990918 21.8634900505 3.04088300338
682 1 9.85183177818 22.7251871893 2.6111919944
683 1 9.80859670587 20.2382765722 2.6158532264
684 1 8.30994734683 21.0667894284 0.832159159222
673 1 8.39106638421 23.555380143 0.808823473324
2019 1 10.5994707076 21.9141755546 0.40583413231
2021 1 14.3869668499 21.9166454607 1.74974654338
2035 1 12.0940379583 21.0840037892 2.17473656584
2018 1 12.1313968254 23.5662369614 2.18294834432
2025 1 16.5838689926 20.352761066 1.30876311365
2024 1 16.6609580558 22.7907689218 1.29121141266
2041 1 15.8432563422 21.0820713723 3.54139626209
1854 1 18.0395251285 21.576145247 2.88880808272
2212 1 19.1382586079 21.4511776573 0.589420479396
2020 1 15.8834188006 23.5391875407 3.50292683453
2017 1 18.9380813138 23.715796973 0.933945700876
3377 1 20.6055905713 20.3713679964 2.36495550956
3373 2 20.0737231087 22.4943307121 2.65292369344
3363 1 22.4627799952 22.1006127938 1.98878900082
3367 1 24.6274271979 20.7725664101 2.43803621377
3365 1 24.8559599547 23.1499237044 1.49979734389
3371 1 26.1680744699 20.7733994509 0.607559266241
3387 1 26.7768756057 21.8829290816 2.69944311425
3362 1 23.9356121389 21.2207820658 0.196017939601
3508 1 26.6093009067 23.5411709265 0.0209289052484
3390 1 28.4745665363 20.1336794943 0.962144432478
3369 1 28.4193022609 22.5447216143 1.049031444
3389 1 30.5707404264 21.6673061258 1.35502554753
3386 1 29.0214899235 20.9485272054 3.17731699317
3385 1 29.0326199247 23.4230565817 3.12217107482
4711 1 32.8004048903 20.841535632 1.70364031172
4710 1 32.7356576484 23.3192403966 1.68689978337
3384 1 31.2794640348 22.5355914151 3.49245919079
3406 2 31.3056937184 20.0732851398 3.48121711074
4709 1 35.0104571543 22.4953949657 2.08160987568
4732 1 35.0401008743 20.0080598424 2.10018959996
4715 1 36.4727643523 20.8543172576 0.300871467488
4714 1 36.4919674056 23.3140194889 0.307858463254
4731 1 37.2801005249 21.6583182901 2.44636280197
4734 2 38.5578002043 19.9710710534 0.641699675338
4713 1 38.7985038403 22.484844959 0.74179250722
4733 1 39.4245304434 20.6995240112 2.90282968552
4729 1 39.7696594268 23.105558915 3.28829824943
675 2 41.0617825697 21.6287498562 1.50796368935
4918 1 42.2905789277 23.0353366215 2.82229388086
686 1 2.2213213884 25.9048688927 1.57028576144
878 1 0.103312753939 25.2231176342 1.66066736098
4896 1 1.5684623842 27.1027862667 3.63846649295
866 1 4.06883285876 24.4224491799 1.76122706471
845 1 4.07137560268 27.0642753266 2.09562562887
849 1 6.2480413627 25.2183814663 1.2732712736
847 1 7.68114986357 26.8875121453 3.15554931897
865 1 5.55134170972 25.726504976 3.56548025566
868 1 7.72179549731 24.3739238339 3.0332587435
851 1 9.94293680456 25.2216478143 2.62910161485
852 1 8.47164667773 26.0422634506 0.889473367075
2204 1 10.6670709513 24.3936519555 0.41997878408
2187 1 10.7331748127 26.8718864783 0.437903432207
2189 1 14.462750772 26.8636489296 1.74488322485
2203 1 12.1912705949 26.0320913919 2.19337604412
2210 1 14.4226964221 24.3947519423 1.7475167226
2022 1 18.1165326568 24.3089462439 3.13039834794
2193 1 16.7243279331 25.2383576715 1.3337042837
2209 1 15.9425635599 26.0324132619 3.50857312687
2195 1 18.2442489634 26.8544876489 3.0732283508
2352 1 18.9789392567 26.0839458179 0.949339322773
3534 2 20.7070166758 26.7954149035 2.2718845883
2026 1 20.4734811814 24.8389104554 3.20476491203
3540 2 23.4611176398 25.4615393454 0.890819098382
3364 1 26.7577259866 24.3139987498 2.61142419478
3539 1 25.8331054148 25.8556283421 0.475187656042
3555 1 26.8238309897 26.7779394377 2.56468240105
3556 1 24.356279991 25.118762181 2.87662934881
3529 1 23.8820684577 27.5572410481 0.151851572014
3533 1 24.5723689879 27.5282267342 2.32944827235
3368 1 30.4591271883 24.1384588478 1.22356524878
3554 1 29.0529200002 25.8786881242 3.00348389207
3557 1 30.5087488009 26.6494929837 1.22663794289
3558 1 28.2372831507 25.0866354371 0.816427073679
3537 1 28.2612393504 27.5479618999 0.808212622316
4879 1 32.7552907907 25.7904321118 1.61695545642
3552 1 31.2794998845 27.4764610495 3.41057822708
3574 1 31.2918702783 24.9904568655 3.41004984231
4877 1 34.9879919133 27.4570606612 2.03054098892
4900 1 35.0560365585 24.9642245488 2.05318352461
4708 1 37.4073235839 24.1361082189 2.43752762807
4883 1 36.4830314079 25.7992943737 0.236117996551
4899 1 37.2196812177 26.6392392487 2.40146618806
4881 1 38.7512148402 27.5068328111 0.641633919371
4902 1 38.7555752251 25.0095793914 0.430391207053
4712 1 40.755758208 23.9847206958 1.21736324948
4901 1 40.9930549826 26.5964843261 1.04537330425
4898 1 39.3425845291 25.7843937788 2.6423248911
859 1 41.8052786751 27.3497841828 3.25766633715
674 1 41.2366187401 25.0314861894 3.57164567564
1027 1 0.529146099886 27.8432323428 1.20257674999
5207 1 0.208335385836 30.8798144612 1.42685352524
5086 2 0.452809811339 29.2079650342 2.89566018078
1003 1 2.61315158777 28.0071527806 0.120514499087
848 1 6.26361803921 27.7368648563 1.42669169349
1034 2 3.95412611813 29.3233775448 1.56561216266
1017 1 6.29419347229 30.2222079458 1.19966147074
1033 1 5.48606254015 30.5902817316 3.44851421534
850 1 9.92248574232 27.6921615387 2.64300456869
1036 2 7.88143834711 29.4291439258 2.77564680612
841 1 8.53468901479 28.4772806835 0.813307588948
1019 1 10.0106323517 30.1683064331 2.59801956271
1020 1 8.57711374285 30.9911691546 0.820899443414
2372 1 10.78371702 29.334865536 0.394361811349
2186 2 12.1847069958 28.5073306286 2.16942977167
2371 1 12.203436518 30.9888320159 2.16013104516
2378 1 14.4722907765 29.336968515 1.71044044624
2192 1 16.7495519858 27.7199205724 1.35557847177
2188 1 15.8655157749 28.4985539723 3.4672450744
2377 1 15.8650271746 30.9394287266 3.45520124362
2360 1 16.7740160809 30.1583737835 1.27785685285
2361 1 18.1241491568 29.3708089966 3.10815568898
2191 1 19.1495980856 28.535758362 1.06256674356
2194 1 19.1010683326 30.9828567635 0.920751394241
2363 1 20.4707387565 30.267518296 2.7909112388
3531 1 21.8602130844 28.7035454072 1.73303085618
2682 1 22.6180025646 31.3339163139 2.58352948141
3532 1 26.6148807377 29.2631113453 2.61992098571
3538 1 26.0745686293 28.4117705582 0.389474911336
3707 1 25.9740216144 30.8587084692 0.397351325375
3724 1 24.1192604124 29.7113288332 1.59883176013
3709 2 23.7709953708 31.6369709242 0.173868937119
3536 1 30.4818699593 29.1221870899 1.22609323129
3553 1 28.9895224708 28.3509341774 3.00948843644
3722 1 29.0277503487 30.7865272242 3.03960680692
3726 1 28.2351861841 30.0046152728 0.861972277123
3725 1 30.5001567294 31.5996202663 1.24745637152
4878 1 32.7382570334 28.2803284799 1.62049220917
5047 1 32.7601180028 30.7644534973 1.6350979967
3742 1 31.2817572905 29.9500544383 3.41044365464
5068 1 35.0244389108 29.9412053051 2.03293393991
4876 1 37.2846418456 29.1296124525 2.44515258062
4882 1 36.480009997 28.2962111334 0.283626801937
5051 1 36.5250429995 30.7879177953 0.284108084806
5070 1 38.8184176424 29.9897384753 0.741391131366
5067 1 37.356390674 31.5826977857 2.48014056463
4880 1 41.1084268043 29.1683416117 1.24462721062
4897 1 39.502573892 28.231926963 2.82263351259
5066 1 39.6901045697 30.6732046737 3.02486378876
1045 2 2.07999106848 31.8550346755 1.96341273815
5048 1 0.484132341096 33.4467571987 1.62088639532
1340 1 2.30576430864 35.1535596127 0.115355405374
1013 1 4.13308701972 31.7748604008 1.28156646312
1202 2 4.07642110581 34.5031613579 1.61273005024
1016 1 6.22599389084 32.6825669758 1.2072599609
1185 1 6.18875175174 35.1582368189 1.24480941899
1025 1 5.29268098176 33.2814046064 3.41096836322
1204 1 7.58811390132 34.2533849139 3.01524915712
1015 1 7.61566309994 31.8466198857 2.913262846
2355 1 10.7747448758 31.809620056 0.399206571287
1009 1 8.45696746033 33.4711547848 0.806945757485
1018 1 9.89389831153 32.631626667 2.57814504657
1187 1 9.85849157558 35.0808457005 2.58982126777
2540 1 10.7006382893 34.2848096572 0.384441762554
2357 1 14.4486135334 31.7902288113 1.72478499356
2354 1 12.1321703955 33.4351486609 2.10411966491
2546 1 14.3985935285 34.2461516378 1.71593401218
2358 1 18.2015907906 31.803558764 3.14997387892
2688 1 16.7310957619 32.6335394774 1.38283062902
2529 1 16.6605879372 35.0867976966 1.37841736539
2527 1 18.2979597829 34.2038554991 2.82690705243
2356 1 15.830715467 33.4237605566 3.4708330246
2673 1 19.0795047476 33.4260842486 0.813325864013
2342 1 21.2121951294 32.1260890852 0.705839830016
2362 1 20.5781291938 32.6432322512 3.08175739206
2531 2 22.4114410996 33.7903128602 2.12301044551
2532 1 20.6444550547 35.2731143052 2.1538799737
3723 2 26.8991571237 31.6732983816 2.44610230993
3700 1 26.777744671 34.0699816257 2.617289598
3701 1 24.6397832205 32.5004664693 2.16090517477
3706 1 25.9808395915 33.3377152596 0.370678225935
3892 1 24.5910958477 34.8458119067 2.45957105799
3697 1 23.6831743095 33.9565154576 0.0866939490492
3704 1 30.4484652226 34.0764731837 1.28268483638
3705 1 28.2682214773 32.501797965 0.811239014607
3721 1 28.9757370399 33.221621412 3.08113882834
3894 1 28.1390334154 34.9725968659 0.853635193965
5046 1 32.7522892869 33.2424686476 1.66529213323
3910 1 31.3009326701 34.878885059 3.46239745406
3720 1 31.2608296166 32.4124916608 3.44432037133
5045 1 35.0440794999 32.4103475849 2.0619914928
5236 1 35.0291032144 34.8948603847 2.07264771539
5044 1 37.2596869473 34.067662573 2.46998882018
5050 1 36.4735429806 33.2699406606 0.27471539402
5049 2 38.6804280052 32.5018271025 0.625721586952
5238 1 38.7253627829 34.929778907 0.703259986377
1010 1 40.831197393 31.671176561 1.06261430353
5065 1 39.4484701467 33.2538174089 2.93906353878
5237 1 40.9239108016 34.1067755311 1.1492040042
5254 1 41.7011509603 35.0023395923 3.36874629816
5064 2 41.5355086682 32.5480912387 3.06301742361
1178 2 0.338055516011 35.7779791503 1.58578842638
1339 1 1.07041557721 38.2213746289 1.74036842559
1181 1 3.77335947094 36.9059501144 1.60171672741
26 1 3.64101195044 39.3383610513 1.67129960814
1201 1 5.38106149909 35.9647962073 3.41683573057
1184 1 6.09571073329 37.6202678016 1.23960153964
1180 1 5.34828797827 38.401499424 3.40993353534
28 1 7.57518153006 39.222683657 2.991394848
1183 1 7.59447543399 36.7549481135 3.00428971342
1188 1 8.43479421691 35.9385060339 0.842763732929
1177 1 8.371910892 38.4102267263 0.830494701679
1186 1 9.84010700281 37.5459537464 2.59525613086
2523 1 10.6871100343 36.7406918863 0.417246159408
1364 1 10.6410795785 39.206569679 0.439344979962
1370 1 14.3244146795 39.1729384931 1.80953287159
2539 1 12.1359675819 35.8899345588 2.16891348898
2522 1 12.1033764246 38.3580368643 2.20869806653
2525 1 14.4059715419 36.7112865438 1.79493879687
2683 1 12.9432824278 37.5480297744 0.00917275390947
2521 1 18.8775632148 35.8802656742 0.814133177969
1372 1 18.3518360493 36.6184643443 3.059820704
2528 1 16.6460213603 37.4894545596 1.33760464034
2716 1 18.8710841832 38.2545520147 0.706488859489
2545 1 15.9058519632 35.8062518886 3.51348295335
2524 1 15.816871473 38.257266698 3.51378728996
1351 2 18.1006996573 38.9597095414 2.69894394562
3702 1 23.017648821 36.0116513438 1.30187647499
2530 1 20.2771552958 38.19415041 2.50729570456
3865 2 22.6340505874 38.2133244941 1.95961084853
2869 1 21.2153836044 39.2776182604 0.366892704094
3013 1 21.0715839363 36.9088777708 0.335392785487
3875 1 25.4761524915 35.7766418013 0.411157223364
3869 1 24.7438579437 37.3843825745 2.26628447325
3874 1 26.1783347572 38.1929334025 0.392300814479
3891 1 26.8242639538 36.4815661472 2.6252589988
3885 1 26.8063278555 38.9845719202 2.60616392173
2700 1 23.8519377868 38.428348147 0.0264086148376
3890 1 29.0539025366 35.689856084 3.07033660173
3872 1 30.5232173758 39.0220489429 1.2966860059
3873 2 28.4237926934 37.3708107466 0.997071559435
3889 1 29.0758038698 38.1946863751 3.10049422074
3893 1 30.5546694926 36.5371636978 1.30180197191
5215 1 32.7809291811 35.7151101761 1.68804237938
5214 1 32.7820365119 38.1911880025 1.70439526176
3888 1 31.3311795394 37.3594658242 3.4898007872
5219 1 36.4946926791 35.7205049388 0.289927269075
5213 1 35.0232630746 37.3613195163 2.10361027985
5212 1 37.3246725186 38.9946508752 2.55103758453
5218 2 36.5201623562 38.1836859395 0.344122862336
5235 1 37.2555807998 36.5366510646 2.47551275303
5217 1 38.7647890948 37.369067324 0.740861013064
5234 1 39.4639776797 35.7067509676 2.88039697675
4078 1 41.165905017 38.9780604074 1.25293447402
5233 1 39.5696329697 38.1796942268 2.93325284824
1179 1 40.9447634788 36.5370932952 1.16297273809
5232 1 41.8015633571 37.4027692028 3.32114264715
18 2 2.44912809853 0.986432062972 6.36242011518
37 1 2.40966196737 3.33853860899 5.93042048935
32 1 0.225372829301 1.52221347386 5.33015118532
16 1 4.6233837595 1.93701304689 5.59962704628
23 1 6.88494547548 2.82144116378 5.23470052903
24 1 6.81892735066 0.342329853813 5.20341847862
42 1 6.13263746648 1.09494943639 7.37097148941
22 1 8.3953820786 1.99768194715 7.00320706514
27 1 9.12755498394 1.21119179719 4.82899241222
1375 1 10.6740466442 2.85435534133 6.6311183577
1376 1 10.5646012162 0.379702114051 6.5983554968
6 1 9.1860989904 3.68491089089 4.86275506555
1358 1 11.4163922877 2.0588343517 4.43257048918
1361 1 13.678185768 2.95224289416 4.0325351541
1362 1 13.4237001847 0.411704661432 3.96466648108
1381 2 12.8175140455 1.25129619531 6.22360103897
1357 1 12.9356057762 3.7635026392 6.24028742695
1360 1 15.067620272 2.17442121857 5.75237695777
1348 1 16.0801015156 3.61434699883 3.955677963
1359 2 18.0838770715 0.586796491133 5.5490387789
1554 2 17.525808103 3.41625245632 6.2333326954
1371 1 19.3149446218 1.16214358122 3.74762302454
1386 1 16.6005210465 1.22194913017 7.28068079849
1368 1 19.6266712951 2.29873319248 6.40509154461
2863 1 21.0542750776 2.67684564175 4.09980315174
2706 1 21.8272751842 1.19327582432 6.00039866488
1354 1 23.2132643102 1.91572325013 4.06982099666
3878 2 21.1815757814 0.122285455266 4.19826138334
2691 1 21.606050552 3.6524076673 6.01972211367
2711 1 24.0151484865 0.24376911789 6.30030574678
2731 1 23.9191153949 2.7687490871 6.21028844267
2695 1 25.3974297741 1.06912992812 4.40951764101
2730 1 26.1759498754 1.93659320755 6.58512180874
2704 1 25.3998965667 3.58626096361 4.40190021727
2733 1 27.6287523058 0.242979818275 4.81452915081
2708 1 27.6257987586 2.73908034244 4.79755667874
2732 1 29.8709930084 1.92603722807 5.24500940883
2729 1 28.4109328367 1.0998300649 7.0113316098
2728 1 28.3792568744 3.57536024547 7.02076541989
4055 1 33.602599493 1.92033152475 3.92200058529
4048 1 34.3740175265 2.76097187994 6.12332908325
4050 1 32.1220320765 1.1093605198 5.67995656137
4075 1 34.3786658992 0.276440317749 6.0899363114
4049 1 32.1112586575 3.59474343517 5.70358769302
4052 1 38.1311685308 2.68988133509 4.76594920382
4053 1 35.8538829661 3.55249451129 4.36191373764
4054 1 35.866415952 1.08254781348 4.32854426909
4074 1 36.645544304 1.90360740392 6.53754893551
4077 1 38.1388946405 0.244873600639 4.72728973378
4072 1 38.840983759 3.48984122851 6.96384138095
4073 1 38.9528258598 1.03441220332 6.92521678826
4076 1 40.4716828804 1.90684870157 5.20815026988
5247 1 41.3638200649 0.287683596586 7.24581806725
1208 1 42.6844988515 3.90049409074 6.0774945051
4095 1 41.1236246703 2.70468607116 7.39169218556
14 1 1.0859126722 4.00897978369 3.97827848929
392 1 3.30401126886 5.25189146512 3.77569453912
13 1 2.08920682024 5.72921584449 5.67533871745
185 1 3.22318443759 7.77031010304 3.80930434129
211 1 4.65709730176 4.36610822261 5.58487496222
184 1 4.58489167575 6.88034699718 5.77565397038
192 1 6.94959085119 5.29122226514 5.30164207973
191 1 6.93628600457 7.77757604342 5.32667975808
190 1 8.46446294111 6.96728640622 7.08508883777
195 1 9.22405636035 6.1618831547 4.89075954697
213 1 8.42262563261 4.46967105735 7.05755330181
1526 1 11.4919863468 7.02817528281 4.47847284568
1544 1 10.6879299607 5.33195334947 6.66453034897
1550 1 11.4571990739 4.53294354309 4.4691661258
1543 1 10.7103222822 7.82492808099 6.66528266015
1530 1 13.7415639399 5.37682423645 4.14294448435
1549 1 12.9235064691 6.22759214873 6.25611074053
1555 1 15.2613393296 4.60376082865 6.05440390285
1528 1 15.164175393 7.12791465297 5.87603928127
1529 1 13.7575443801 7.90784119838 4.12021453068
1537 1 15.9806447749 6.07806082676 3.95322689614
1367 1 19.0640018934 4.11395519887 4.44001439228
1536 1 17.5287023166 5.56027137825 5.62050328763
1535 1 17.5077102201 7.90554622483 5.71527209563
1523 1 20.9738617202 5.27349433819 3.73595573894
1350 1 19.6530729629 4.5840672465 7.09885364681
1522 1 19.7370453915 6.75896048479 5.38634087353
2874 2 21.8502038571 6.0082201017 5.83929841667
2879 1 23.0457597093 6.87948268178 3.87708345821
2873 1 23.1762613049 4.41144740722 4.06673354687
2899 1 23.9924072577 5.24046150318 6.17248473857
2878 1 25.3439811617 6.0659514669 4.3151673865