ITEM: TIMESTEP
18000
ITEM: NUMBER OF ATOMS
5376
ITEM: BOX BOUNDS pp pp pp
0.0 42.7297273569
0.0 39.5600404449
0.0 37.0050293879
ITEM: ATOMS id type x y z
5216 1 1.06538280073 1.70244396954 2.51698441449
19 1 0.277081374024 3.30592886841 0.580392448715
163 1 2.53901039795 2.47783972077 0.588861446869
5 2 4.39759182373 1.90494395305 1.65770638262
8 1 6.36122874409 2.802690395 1.25439991745
9 1 6.2209367844 0.255692109228 1.24520625612
25 1 5.34294450485 1.02368582028 3.48435928179
4 1 5.45102012839 3.5409658576 3.41655456443
7 1 7.73240377157 1.95399021672 3.06152006603
10 1 10.0059239792 2.8062827023 2.60776004939
11 1 9.9270722145 0.320407385837 2.60980808243
12 1 8.45814728441 1.14676149855 0.848408801313
1347 1 10.7422183721 1.98069645446 0.405479601285
1 1 8.55379286092 3.63959242779 0.845646948362
1349 1 14.3889889599 2.020791504 1.79323220687
1363 1 12.1874869417 1.15975164659 2.2004983345
1346 1 12.3085802448 3.64344538526 2.17371707577
1352 1 16.6980574406 2.80863323143 1.58469031731
1353 1 16.7049071147 0.304484211045 1.4157575178
1540 1 18.1796861586 1.89125721642 3.48714776939
1356 1 18.8667140679 1.47284017334 1.16202487848
1369 2 15.800667441 1.25074659318 3.40267729548
2710 1 21.6984954685 1.3466162154 0.790908189451
2863 1 20.256485127 2.90777660876 2.75749213885
1355 1 20.5081017587 0.345905782821 2.718148266
1513 2 20.1901979598 3.14233163609 0.496945100748
1354 2 22.2463314633 1.73360416172 3.13680041148
2689 1 22.3522455457 3.93602238605 1.82611648553
2694 2 24.8301253153 3.09801964483 2.02116723015
2699 1 26.0765005403 1.31511675172 0.514202477926
2698 1 26.2013594575 3.81378183299 0.411811193277
3868 1 26.8457653042 2.11448660332 2.68179828813
2709 1 24.281798762 0.600963870086 2.26854740467
2693 1 23.9697062199 2.43270554162 0.0313368037418
2697 1 28.3926347706 2.9049762626 0.915592807445
2714 1 29.0886548844 1.25534009188 3.10781161529
2717 1 30.6097647956 2.04868578409 1.34482189662
2718 1 28.3163414112 0.4477418855 0.910501002786
2713 1 29.0873528645 3.72217656597 3.12309825204
4039 1 32.8330057173 1.18771146304 1.77760969988
4038 1 32.8597952625 3.66620145209 1.77242620779
2734 1 31.3408158794 0.389993819228 3.55114897161
2712 1 31.3503786319 2.86952399188 3.55134991509
4044 1 34.3385992777 1.98242184722 0.00397221727144
4060 1 35.0550033832 0.325779665333 2.19985396129
4037 1 35.1112505089 2.80740211429 2.19745609666
4043 1 36.5656206102 1.13169544191 0.450805539708
4059 1 37.3607398097 1.95058570519 2.62174897411
4042 1 36.6291206863 3.60943030985 0.404211666335
4062 1 38.7920093525 0.292920217276 0.938324039557
4041 1 38.906043253 2.76592636452 0.864611532975
17 1 41.9058236107 3.07702487429 3.13509847963
4058 1 39.6293065958 1.12176005116 3.0902433742
4057 1 39.5752220123 3.62326070518 3.0563614496
4056 2 41.8368702282 0.826969709999 3.40795178443
4196 1 41.1676093746 1.88173478193 1.21623388973
193 1 1.51269925057 4.11382231615 2.45830286452
187 1 0.442705303615 6.15336048311 1.59164363926
185 1 2.30075703645 7.04008568377 3.23874261387
331 1 2.35180851837 7.29840588374 0.649971644907
194 1 3.89946654287 4.32732120841 1.69418175361
173 2 4.21923122726 6.71272839392 1.58910685862
177 1 6.21680435999 5.24406870807 1.31205545922
172 1 5.37188744059 6.18388386694 3.45993754733
176 1 6.26681799526 7.71932969572 1.29288384594
196 1 7.6909932875 4.4608321527 3.02320381277
175 1 7.70041805058 6.93956895916 3.08311469807
179 1 10.0016368192 5.2848398617 2.59823535972
180 1 8.47387731655 6.10592036873 0.875507542127
1532 1 10.8104515532 4.46166168934 0.413639396897
1515 1 10.7771538023 6.91575187219 0.428835369338
178 1 9.98515277635 7.753261913 2.60972215865
1517 1 14.5651972526 6.86057020465 1.58239816094
1531 1 12.3141349261 6.10817242675 2.17523314162
1538 1 14.6324543542 4.45134490822 1.74402049895
1519 1 18.2567950804 4.39639396464 3.27087601858
1521 1 16.9519231146 5.18074224361 1.37408036862
1839 1 18.6048893796 6.84740225318 3.02740990359
1537 2 16.0678705841 6.26684859368 3.32743861932
1524 1 19.8628731918 5.45416082258 1.20808474717
2868 1 22.1414714426 6.42261436957 1.70319999916
1523 2 20.6890605373 5.12879105877 3.48799869451
2692 1 26.8403042937 4.57937368841 2.70590738547
2867 1 26.2960224879 6.18606915558 0.34210290748
2883 1 26.601006584 7.09043872874 2.66632569559
2884 1 24.5449639534 5.2886768064 2.35804789917
2857 2 24.5222880799 7.13145464666 1.14525669508
2861 1 23.8205159046 7.53546994027 3.32884453641
2696 1 30.6123986205 4.52439613801 1.34763268362
2882 1 29.0164348557 6.22271310214 3.10581940139
2885 1 30.5604429779 7.00440678789 1.33596124904
2886 1 28.3786426957 5.3724835928 0.933802852906
2865 1 28.2828431293 7.85725075403 0.92185062513
4207 1 32.8265266021 6.14152736179 1.76079698331
2880 1 31.294945623 7.82913059154 3.52484609447
2902 1 31.3292722162 5.3513702682 3.54002628122
4228 1 35.0877529664 5.28194019029 2.1824001281
4205 1 35.0173598469 7.76233148304 2.1559313254
4036 1 37.3411461818 4.42366765683 2.61145806052
4211 1 36.5653514514 6.08731052013 0.365134912682
4227 1 37.2295440451 6.88379812615 2.55864669662
4209 1 38.678192894 7.76224528206 0.775097903747
4230 1 38.7814042797 5.25563575277 0.814253639094
4061 1 41.0031293562 4.49585447566 1.27296545531
4226 1 39.4942602023 6.06690913006 3.00080654995
4397 2 40.7341886134 7.07096070646 1.22138075654
4246 2 41.6924202634 5.22499099819 3.39244093787
182 1 42.0459437677 7.619860894 3.40571961277
4229 1 1.02651899476 9.01051121743 1.80062300722
355 2 3.21849950456 9.72273167314 0.904549770191
500 1 3.29226648244 9.93424327529 3.14171741792
374 2 0.150639084582 11.1662964414 1.62729438425
350 1 1.18684540074 11.3858300804 3.69558611863
499 1 1.83405602774 11.3028145248 0.0140060509972
361 2 5.58222165677 8.82056333618 3.4808015656
345 1 5.91662297367 10.1824532411 1.38544475693
353 1 5.38046036326 11.1502007614 3.65722818418
364 1 7.70956152248 9.43211084139 3.00689623786
169 1 8.45254084032 8.56516885563 0.864971316458
347 1 9.95446214286 10.2290747023 2.6207460045
348 1 8.33945581895 11.0015450678 0.904462653999
1700 1 10.7033948004 9.37304443942 0.443893354105
1683 1 10.6301652869 11.839028802 0.445932466841
1514 1 12.2825651162 8.56416316691 2.19779754643
1699 1 12.1962091672 11.0675003825 2.20060268437
1706 1 14.4264172158 9.54268013433 1.77167747453
1844 1 12.9120393309 10.2213864704 0.00663525951309
1520 2 17.820729587 8.50023265261 1.02625351477
1689 1 16.6972857495 10.4881773312 1.2166478949
1705 1 16.3049297966 11.6303073809 3.30725764133
1708 1 18.3090067038 9.7273860523 2.90486359247
1516 2 15.9298028019 9.42123302983 3.53164900001
1848 1 19.4644811773 10.2505949585 0.373244360956
1842 1 20.0548824536 8.27539752375 1.81918122763
2862 2 22.1723497091 8.82875799571 2.26416206471
1692 1 20.7165854789 10.5855408422 2.86257216732
3031 1 22.5094880485 11.1315225982 0.929406518517
2860 1 26.7602135841 9.59331818638 2.68209197053
2866 1 26.0870614208 8.79071210198 0.464547840338
3035 1 25.9456457906 11.2793618997 0.331542940137
3052 2 24.7343324233 10.8395462985 2.27283072426
2864 1 30.5153153161 9.48863266282 1.31831430745
2881 1 29.0068219767 8.68865203965 3.08808832327
3054 1 28.239310112 10.3395476984 0.880796263812
3050 1 28.9618516295 11.1621746337 3.08424010371
4206 1 32.7722114793 8.61973608632 1.74347188265
4375 1 32.7514469105 11.0913899178 1.74356092956
3070 1 31.2465925712 10.313804457 3.51443214999
4396 1 35.0130308146 10.2366177975 2.16742570383
4204 1 37.2726018107 9.3552930069 2.57953319475
4210 1 36.5030562846 8.5788583069 0.367099387797
4379 1 36.520443721 11.0416185426 0.395553801308
4395 1 37.2326443324 11.8388021186 2.61647009032
4398 1 38.7828506509 10.2127346444 0.815835017735
4225 1 39.5287808253 8.48921714383 3.02446081625
4394 1 39.4539823379 10.9295055581 3.0754205171
4208 1 41.0677018129 9.33929905901 1.31253937652
4224 1 41.7778191629 10.0561103468 3.50817220215
542 1 40.7682818052 11.7560871225 1.26424022643
341 1 3.84856863556 11.8915616589 1.63733668797
522 2 1.99757422549 15.1782829134 0.949236997425
4376 1 2.93417099407 15.2326239179 3.41244599275
170 1 1.42972493156 13.12588258 1.80857037019
338 1 3.13810237216 12.6921557314 3.67546452491
530 1 4.04417568173 14.2631260753 1.61429472447
340 1 5.37118808443 13.5600533702 3.49537957361
344 1 6.13881460721 12.6379336707 1.32790468605
513 1 6.17966448665 15.1557640284 1.25733140732
532 1 7.63598369945 14.3485660578 3.0644579474
343 1 7.64896857175 11.8944020074 3.07984004118
337 1 8.39530251809 13.485702498 0.873738802135
346 1 9.91722466378 12.693365242 2.6301246974
515 1 9.90726383828 15.1670542245 2.61696714863
1868 1 10.6378673289 14.3226618137 0.423089043784
1685 1 14.3919359514 12.0481915903 1.75014484747
1682 1 12.1619166715 13.5508620614 2.19514914798
1874 1 14.3753984563 14.5029508466 1.68479682688
1688 1 18.569469472 12.048954119 1.73191972853
1684 1 15.7368221528 13.8545132041 3.51559774568
1857 1 16.6948631629 15.3564494403 1.28950019413
1833 1 16.5979440739 13.0411604849 1.28452377314
1855 1 18.1060964475 14.176117758 3.10758577335
1849 1 19.3354812362 14.389962321 1.03383678073
1876 2 20.5564457715 12.2632785605 0.798286679233
1681 1 20.7192999121 15.3737740991 3.02425257942
3030 1 20.6369160637 13.0438097294 2.94664878389
2016 1 22.2731275367 13.9031972153 1.27832856499
3047 1 22.8837958517 12.3258723546 3.29811956297
3027 1 22.9232432391 14.7361120807 3.57469412971
3051 1 26.7020334372 12.068758036 2.65037243675
3028 1 26.7038515579 14.5034760435 2.64749717785
3029 1 24.5395198327 13.1326659863 1.99194901152
3034 1 26.0827991325 13.8058161021 0.327298463918
3220 1 24.5861920039 15.5495561999 2.13364496831
3053 1 30.5001876682 11.9533149872 1.33623860439
3032 1 30.5225547349 14.4297417475 1.39070871083
3033 1 28.2068798991 12.7788165599 0.921641006505
3222 1 28.2606374253 15.2414455041 0.882684184661
3049 1 28.9819572504 13.6366071562 3.11234550437
4374 1 32.7469148226 13.54592135 1.73958420066
3048 1 31.25432746 12.7938842852 3.52475112359
3238 1 31.2731674426 15.2542155493 3.55862466123
4564 1 34.9721875605 15.1770141433 2.15789385198
4373 1 34.9968525248 12.7043168122 2.18287476202
4372 1 37.2032650094 14.3050453806 2.58008609594
4378 1 36.4566505686 13.5135301115 0.386476293794
4566 1 38.7132796683 15.1175178747 0.819466461136
4377 1 38.6689656566 12.6718521724 0.811314881741
339 1 40.8857540967 14.2032578672 1.3550157811
4393 1 39.425542426 13.4038712231 3.06136601406
4392 1 41.7136479918 12.5477341328 3.41830697785
349 1 41.4873111455 14.9706299482 3.57090290635
524 1 42.7097400534 14.704933507 0.0189390674668
523 1 0.399173265338 15.8614251592 2.2567997218
4703 1 2.07025166016 17.4879261573 1.86222934039
4694 1 0.199651403748 18.7903403158 1.85267771192
698 1 3.90415646549 19.2384274417 1.79491528764
509 2 4.26223645403 16.8513579658 1.95339177328
508 1 5.41586520766 18.4555062779 3.53448628021
512 1 6.21091073564 17.6192620857 1.25614783114
700 1 7.6336474359 19.2632815274 3.0114816052
529 1 5.46549923546 15.9560984404 3.57701081209
511 1 7.7176846094 16.8013144772 3.04910932579
516 1 8.41419222718 15.9705628843 0.834139215807
505 1 8.41332360639 18.4415927272 0.816221517124
514 1 9.92419075598 17.6517372482 2.57678951141
1851 1 10.6574812261 16.8122807919 0.383928458968
2036 1 10.6366642666 19.2914002816 0.379222076666
1850 1 12.160536697 18.5166054255 2.12806888843
1853 1 14.3880117072 16.9516413004 1.70100333895
1867 1 12.1509507081 16.0333905388 2.15273225911
2042 1 14.4392295045 19.3858957659 1.68588922557
1852 1 15.967056154 18.5872907605 3.42775819572
1873 1 15.8697877589 16.2080296266 3.41725971889
1856 1 16.7066205401 17.839534896 1.21396220393
2044 1 18.2195922407 16.6760061277 2.71328625949
2023 1 18.2892369065 19.385618687 3.06914986398
3037 1 22.3747165811 16.3786370616 1.58904628284
3198 2 22.4924739602 18.7741074413 2.09525274323
3026 2 20.1393731185 16.7431124077 1.1395988181
1858 1 20.3924657454 19.2645655146 1.21216062203
3209 1 20.6765894795 17.7973369068 3.47259376829
3204 1 23.611850341 17.7252483836 0.0418968194106
3203 1 26.0625556874 16.2723194471 0.379998798734
3196 2 26.582355481 19.5032709238 3.01307788697
3197 1 24.6066023328 17.9079802259 2.33964090695
3202 1 26.1995113439 18.6345626483 0.633517001641
3219 1 26.8167816013 16.9995500858 2.63477317702
3218 1 29.0213205487 16.1041615399 3.08072968549
3200 1 30.5387211397 19.3380155534 1.26314975614
3201 1 28.3564076561 17.6037832089 0.708741998272
3217 1 28.9400900457 18.5791886668 3.00219704998
3221 1 30.5291075659 16.8634084467 1.29999341609
4543 1 32.7303197602 16.0146991173 1.75395832267
4542 1 32.7205712984 18.4882143312 1.731690797
3216 1 31.1861315561 17.7298205513 3.49113750621
4541 1 34.9211075007 17.6318888181 2.20270133696
4547 1 36.4612656495 15.9770957919 0.406373625605
4540 1 37.1658705026 19.2557073578 2.68181109892
4546 1 36.462107496 18.4425143046 0.464079712147
4563 1 37.1584887937 16.7847881251 2.60790840913
4545 1 38.7412455222 17.5605422954 0.869190897051
4562 1 39.3717051426 15.9023837308 2.99387820121
4544 1 40.6457275185 19.0432684179 1.37522824139
4565 1 41.0496681187 16.6634164707 1.30501775131
4561 1 39.3911073408 18.3358772033 3.18690981783
4560 1 41.6578347905 17.4320505056 3.5962559399
4750 2 0.434792499559 20.85297118 2.73512242248
860 1 0.865997365586 21.5484725229 0.699030245304
677 1 3.82541015104 21.6224085588 1.68945028441
691 2 2.01455380696 23.5565224978 1.89170419708
680 1 6.15825690122 22.4804975539 1.22679994213
681 1 6.14793338816 20.0486282077 1.24043922341
697 1 5.45643615903 20.8965227149 3.42456055531
676 1 5.51274376859 23.3216026618 3.38608086065
679 1 7.67319678095 21.740328927 2.99110529051
682 1 9.88395296428 22.6121144442 2.57062192353
683 1 9.87524863517 20.1241233073 2.57840991865
684 1 8.3885276808 20.9094024445 0.796474347123
673 1 8.39044898692 23.3949054119 0.800137199673
2019 1 10.6202549532 21.766367357 0.373974757825
2021 1 14.3309359862 21.8245308967 1.75813516804
2035 1 12.1040288031 20.9811909764 2.15282183277
2018 1 12.1086329653 23.4675894556 2.15460985197
2025 1 16.7359685654 20.2055189972 1.24253896477
2024 1 16.557492436 22.7194310386 1.44486398691
2041 1 15.9044319237 21.0292857035 3.45705878645
1854 1 18.1320318203 21.8869833221 3.11903343735
2020 1 15.7787588029 23.550136809 3.53634335679
2212 1 18.9693532864 21.1378566396 1.00398122849
2017 1 18.785875462 23.5846656666 0.944469224987
3367 1 22.3060088338 21.2061175528 1.9908883302
2043 1 20.3296043319 22.6579234252 2.65957334721
3373 1 20.9949858898 22.1022248151 0.390829003593
3377 1 20.6972993269 20.294482275 3.36144466924
3363 2 22.3864289499 23.692654705 1.99629378844
2027 1 22.4852529661 19.974651467 0.0136105069995
3388 1 24.4941951534 20.3641858658 2.13428659117
3365 1 24.4632867325 22.8865588141 2.31583545173
3371 2 25.7162991915 21.7669415858 0.703488594944
3387 1 26.6867325898 22.0945538361 2.79651341661
3390 2 28.4887778903 20.0071624794 0.677415060331
3369 1 28.1217292397 22.6367610062 0.820579130888
3389 1 30.4087914042 21.8233237253 1.26146015502
3386 1 28.8690510102 21.0113885532 2.98482666899
3385 1 28.9539668238 23.4707187238 3.03736781312
4711 1 32.6792048731 20.9841102081 1.7181640618
4710 1 32.711099532 23.466205245 1.73443697415
3384 1 31.1987454641 22.6383275643 3.47093369054
3406 1 31.1604237336 20.1899638873 3.4823218376
4732 1 34.9294918069 20.1185052015 2.18762407264
4709 1 34.9523546281 22.5870159552 2.17644838562
4715 1 36.4418026787 20.9357875104 0.432604350901
4714 1 36.4696025066 23.3938718422 0.443655447938
4731 1 37.2180366705 21.7418660111 2.62162582176
4734 1 38.6206453429 20.0613284059 0.928791175124
4713 1 38.8099602511 22.523301778 0.950421482358
4733 1 39.3961229302 20.8227445382 3.11864230417
4729 1 39.7592692149 23.3033747923 3.11758093512
675 1 41.1135945836 21.3887872099 1.45358925684
4918 1 42.5170649556 23.0748727321 2.49468677349
878 1 0.655408317889 25.637915525 1.88813341798
858 1 3.13912694426 25.1070884624 3.64446140385
843 1 0.472893831029 23.9590532424 0.175109282624
686 2 2.28648716722 27.1274940594 2.34697837602
845 1 4.17963344164 26.4821885433 1.51752473276
866 1 4.1651266723 24.0503498843 1.5589436573
849 1 6.30422025607 24.9710266037 1.18960867461
865 1 5.51652503113 25.7155104981 3.3740983649
848 1 6.22496573758 27.4821638611 1.12382242329
868 1 7.69840491862 24.2461926645 3.01539980117
847 1 7.62538375627 26.7687947049 3.03152630222
851 1 9.9032876347 25.1081548258 2.5893084957
852 1 8.44192396402 25.9105915264 0.824258598818
2204 1 10.617073791 24.2506024233 0.389337170437
2187 1 10.6522575409 26.7516939556 0.419678963578
850 1 9.86906690945 27.5738956729 2.60642697326
2189 1 14.4072290703 26.820216274 1.78192061131
2203 1 12.1410077975 25.958753647 2.18186729935
2210 1 14.345464818 24.3133927657 1.75513037883
2347 1 12.9093309065 27.5656081808 0.0719418232195
2348 1 12.8575323048 25.0766372512 0.00453790925248
2022 1 18.0310851727 24.4247550822 3.08333477602
2193 1 16.5715827362 25.2265890241 1.38151406496
2209 1 15.8364814881 26.0304765733 3.52951992931
2352 1 18.7751987334 25.9876474381 0.8927683633
2195 1 18.2090760566 26.9149944145 3.10710369374
3530 1 20.9362153281 24.5842370298 0.547053380873
3541 1 20.3932094084 25.1230214128 3.10518748462
3534 1 22.5670686732 26.1841813235 1.80581702595
2211 2 20.5416900995 26.9658043866 1.82521208955
3370 1 25.8433253988 23.9967273334 0.585513132948
3364 1 26.8058444275 24.5242485352 2.76109780526
3539 1 26.0406244161 26.2837248469 0.461435589625
3555 1 26.8392173259 26.9644639508 2.64922406706
3556 1 24.6140188459 25.3220625977 2.2520763592
3540 1 23.8942560823 27.264242208 0.0472686300757
3368 1 30.4628198301 24.3021037083 1.2956765336
3554 1 29.0294451743 25.9770143034 3.07208403728
3557 1 30.5352308653 26.7975782048 1.31107476036
3558 1 28.2218540097 25.1579494114 0.862300176334
3537 1 28.2955339483 27.6825467607 0.845951502215
4879 1 32.7575297585 25.9241062904 1.77173080096
3552 1 31.2790661789 27.5674226105 3.51904633427
3574 1 31.2461912805 25.1021530206 3.50975986651
4884 1 34.2414124623 26.7484357589 0.0244192232259
4877 1 34.9717259872 27.5159671786 2.19896471827
4900 1 34.99838166 25.0545388672 2.19719894773
4708 1 37.296910634 24.1837819754 2.6440087653
4883 1 36.4680539608 25.8588141512 0.41318839587
4899 1 37.2102243248 26.6772487536 2.61502180357
4881 1 38.7277122052 27.5012989388 0.889880666073
4902 1 38.7174915911 25.0200976739 0.893920703013
4712 1 41.0117557125 24.2681470606 1.14299820032
4901 1 41.0618382625 26.7822845384 1.34942776371
4898 1 39.480415654 25.8452443832 3.06597316829
674 1 41.6539230458 25.1410143315 3.4579661298
859 1 41.6989212262 27.5573159382 3.52907750694
1027 1 0.561542818959 28.3908009342 1.7378562358
5207 2 1.77813482368 30.5727155933 2.28624565847
1034 1 3.56378931123 28.9260763227 1.58558807513
1013 1 4.01456349589 31.421070689 1.70995276804
844 2 5.33439291294 28.0976948908 3.09171808826
1017 1 6.03890851478 29.9322909383 1.2852009456
1033 2 5.67301944245 31.1340387644 3.51104591781
1036 1 7.52596915824 29.2251177608 3.07882536056
841 1 8.39959537583 28.394701636 0.856780227158
1019 2 9.85117435247 30.0261607462 2.58919359479
1020 1 8.36700432638 30.8115743023 0.787096237331
2372 1 10.6090884994 29.2220332135 0.407588533128
2186 1 12.112748232 28.4491486776 2.17344485446
2371 1 12.1135714844 30.9053726575 2.17357747749
2378 1 14.4027229099 29.2925580833 1.79262870191
2516 1 12.8423777762 30.0710838979 0.043483141346
2192 1 16.6935660882 27.7142226861 1.41838286555
2188 1 15.9154540621 28.5444288523 3.51064553738
2377 1 15.8413132649 31.0332532733 3.33861290961
2360 1 16.6327263707 30.165907859 1.20584656023
2361 1 18.2110234748 29.6206553005 2.90203270412
2191 1 19.0825438721 28.5248127439 0.99416459887
2194 1 18.9021960279 30.8166644947 0.596924298646
2363 1 20.5959608345 30.5173425701 2.75517249829
3531 1 21.9714548749 28.9502137218 1.42950963597
2379 1 20.23884176 28.3881988946 3.66590443472
2682 1 22.484629221 31.5561310296 1.83730980219
3551 1 22.9630122629 29.2482688365 3.69779021595
3533 1 24.5428742068 27.8881012658 2.18086722566
3532 1 26.7605052721 29.3928206666 2.64455008329
3538 1 26.0643318816 28.6730951649 0.390077011388
3707 1 26.0421703424 31.1288384046 0.456798232449
3724 1 24.5033952251 30.3299972388 2.21974511729
3529 1 23.9250993031 29.731238576 0.0660274806255
3536 1 30.5362222984 29.266707301 1.29521251126
3553 1 29.0377271076 28.4640576747 3.07225965702
3722 1 29.0376043628 30.9404921184 3.06726870141
3726 1 28.2894198881 30.1498920229 0.867205294764
4878 2 32.7534371743 28.3836188199 1.75269361203
5047 1 32.7544908607 30.8404973122 1.72506659245
3742 1 31.2821142055 30.0321711442 3.49465556695
5068 1 34.9848551106 29.9719749152 2.16784293242
4876 1 37.253314911 29.1569838027 2.56550034512
4882 1 36.4715387584 28.3370757415 0.411660739122
5051 1 36.5268809511 30.7990227946 0.416602280339
5070 1 38.8165927404 29.9946494687 0.779525918127
5067 1 37.2810004598 31.5822432739 2.61348066743
4880 1 41.004229443 29.299379279 1.38285538856
4897 1 39.488652972 28.3335787079 3.01868044859
5066 1 39.6301664637 30.8002647979 2.97625711069
5086 1 41.9421463299 29.9534265552 3.58427563683
5048 1 1.68192785197 33.0960756915 1.95326593084
5375 1 0.0405321828479 34.9900623179 0.296285471789
1178 2 1.81493466466 35.4243744441 2.06731035742
1340 1 2.57093298873 34.8082788369 37.0069814604
1202 1 3.99450090845 33.9347756285 1.6824697651
1016 1 6.2587157571 32.3931868773 1.29795170979
1185 1 6.20927753685 34.8716535818 1.23779736815
1025 1 5.44860052077 33.3601667422 3.47356509053
1204 1 7.7217708415 34.1526706234 3.00700945638
1015 1 7.79113358905 31.6703069427 3.02794779867
2355 1 10.6538518172 31.6623724416 0.317761540194
1009 1 8.45845155423 33.2759511989 0.80144726311
1018 1 9.96773597 32.5025509162 2.55882701376
1187 1 9.94647374192 34.9621991375 2.56489982151
2540 1 10.6891223864 34.1330308962 0.351313909299
2357 1 14.3386874479 31.7501309054 1.65018343429
2354 1 12.1726058025 33.3474818071 2.13603086157
2546 1 14.363099114 34.2082854782 1.6744923095
2358 1 18.2465627781 32.0518600841 2.93023986588
2527 1 17.8647144318 34.5830709546 3.49833991249
2688 1 16.6445643326 32.6184416422 1.23681189953
2356 1 15.8631683475 33.4316352613 3.35180620384
2529 1 16.6351245301 35.0190988881 1.28026695878
2673 1 18.8579444744 34.3025948575 0.984450559035
2362 2 20.185084541 32.4241275047 1.47583845035
2531 1 21.5530879215 33.8878002752 0.572100806564
2532 1 20.4113977322 34.8423463041 2.70536070313
3699 2 22.6507941934 33.8992258679 3.07377404955
3723 1 26.7768727022 31.8590155287 2.64792999721
3700 1 26.7632752536 34.3103339997 2.66815915038
3701 1 24.5533106384 32.7633398676 2.12098244047
3706 1 26.0224222941 33.5682871274 0.425641749876
3892 1 24.5575767879 35.2101462859 2.17848416734
3725 1 30.5284086205 31.7274124844 1.29813123566
3704 1 30.5324233782 34.1984343658 1.32288140166
3705 1 28.2758359054 32.6238534189 0.870663816498
3721 1 29.0221012818 33.4162809729 3.08703748658
3894 1 28.2905062341 35.0844518989 0.887271510886
5046 1 32.7677472996 33.2994743233 1.76311414663
3910 1 31.2663194224 34.9993143191 3.53914081183
3720 1 31.2635454996 32.5105885522 3.51330744898
5041 1 34.2762180171 34.1056372154 0.0234641785219
5045 1 35.0187977445 32.4383275219 2.18438015756
5236 1 35.0261117627 34.9213939216 2.23336307467
5044 1 37.2790539628 34.0632839358 2.6472234557
5050 1 36.5193212992 33.2631500368 0.438402774904
5049 2 38.7287902478 32.4741042612 0.913931473801
5238 1 38.6532568801 34.9654085141 0.837201628042
1010 2 42.3278802904 32.7098286492 0.982503280357
5065 1 39.5156163268 33.2098766062 3.11809327426
5237 1 40.6715390786 34.0965890445 1.18736476847
5254 1 42.1372675071 34.6509839619 2.93825137454
5234 1 39.5821861999 35.594601388 3.06028199735
20 1 0.508305968337 37.164040493 1.81739898605
1207 2 1.74448480773 38.9334011265 2.36139812789
1193 1 2.94667163077 37.2446586454 3.68905545833
26 1 3.91768795129 38.9289895575 1.63868733461
1181 1 3.99051240019 36.4167052282 1.59688416769
1201 1 5.37388094804 35.7280160907 3.41345153843
1184 1 6.15092155115 37.3796980547 1.22058840317
1180 1 5.30386039176 38.1659091155 3.44623790471
1183 1 7.64785820513 36.5957542353 2.99127006061
28 1 7.62574302536 39.0468353075 3.02897057176
1188 1 8.43276600972 35.7621422287 0.78771198558
1177 1 8.39964868848 38.2392930093 0.785700603815
1186 1 9.92250730594 37.424053616 2.56986395682
2523 1 10.6738603884 36.6025286011 0.357452441281
1364 1 10.6796515761 39.0625227655 0.396444137651
1370 1 14.473247848 39.1061411504 1.76414398841
2539 1 12.1699591138 35.7981964377 2.15331072678
2522 1 12.1766596512 38.2769356816 2.12398585409
2525 1 14.3306930262 36.6447172252 1.64267600821
1351 2 18.4819952596 39.0899285309 2.65551637916
1372 1 18.3305236807 36.6961481706 2.45457767418
2524 1 16.1517577194 38.3339450162 3.63545733964
2528 2 16.3952213509 37.3874027624 1.21609310505
2545 1 15.8078032419 35.9465411486 3.36593062717
2716 1 19.6343029293 38.7695084425 0.621981526372
3702 1 22.3218620264 35.9306198456 1.69842188071
2521 1 20.0618504818 36.3305350005 0.717136668455
2530 1 20.592489703 37.4813106778 2.94957081485
3865 1 22.0749622977 38.2756555328 1.14392407083
3870 1 22.5166546589 38.7903034134 3.63290407457
3875 1 26.0709643841 35.9751200703 0.436906557065
3869 1 24.344105762 37.6646494554 2.24193012649
3874 1 25.993544505 38.4366708427 0.508490415206
3891 1 26.7499375644 36.7963185659 2.63856196411
3885 1 26.733864678 39.2556553729 2.66253973763
2700 1 23.8337071631 39.4608267488 0.0606733410157
3890 1 29.0164395372 35.8929131913 3.09818119301
3872 1 30.5591553749 39.1374557819 1.34523368165
3873 1 28.2814372969 37.5575256515 0.891869197242
3889 1 29.0174298449 38.3583901513 3.11398893399
3893 1 30.530494996 36.6731847228 1.33832255628
5215 1 32.7709340181 35.7851751203 1.79181340444
5214 1 32.8019607148 38.2648138893 1.78726999896
3888 1 31.2934370216 37.477797509 3.55056189602
5220 1 34.2462799889 36.5819406263 0.0409126076838
5209 1 34.2879170615 39.0625031056 0.0121072095452
5213 1 35.0566971536 37.3999052998 2.23815722104
5219 1 36.4754103207 35.738501141 0.467895067767
5212 1 37.2767155728 39.0206676599 2.62321534545
5218 1 36.5051095697 38.2123965284 0.462136921967
5235 1 37.3315514729 36.5409731397 2.68282436645
5217 1 38.7152340629 37.3747336186 0.839319451508
4078 1 40.9848773012 38.907400059 1.43271396048
5233 1 39.3880848716 38.0451758026 3.06258883935
1179 1 40.9103659228 36.4365448065 1.1884151257
5232 2 41.4972064658 37.143760127 3.19832735926
186 1 3.12416718063 2.55320478911 3.72090850464
18 1 2.79223151573 0.148984329017 4.14032893908
14 1 0.864881510439 2.5054199677 4.72929495548
37 1 2.36190342499 1.0723496882 6.19212790509
13 1 2.54114415455 3.56315951162 6.01018046132
1208 1 0.336090808956 2.12455617203 7.16158970165
32 1 0.219329704973 0.449309460536 5.31153336614
16 1 4.57716769642 1.80214787625 5.65476022844
23 1 6.86812222079 2.76152172654 5.20360916263
24 1 6.85225315617 0.294080930839 5.22620306979
22 1 8.34654321167 1.96715014171 6.97067483981
27 1 9.16871873969 1.1457607626 4.80450745759
1375 1 10.5969148826 2.81106615027 6.51749521861
1376 1 10.6645948564 0.33290923504 6.54589441053
6 1 9.16943873038 3.63538854605 4.7649208496
1358 1 11.4660941352 1.98132699256 4.38345656597
1361 1 13.7286435498 2.82358156477 3.98550231359
1362 1 13.7343114711 0.334188823249 3.99034783426
1360 1 15.1219047252 2.03219529781 5.78626263542
1381 1 12.9165661023 1.12366988263 6.14491052154
1357 1 12.8740281994 3.62034711646 6.11861017624
1348 1 16.0246569736 3.66645234994 3.70514719193
1368 2 18.4502322532 1.19663155064 5.6075399447
1359 1 17.3392734597 3.14711853661 6.05486845731
1367 1 19.5860571309 3.51153590671 5.07420714052
1371 1 20.6600996198 1.22353800467 5.06306569816
2726 1 21.3650049193 3.25545154554 6.70619633355
2691 1 22.2470948248 3.44388608364 4.60244698858
2711 2 22.4645686374 0.0238439804985 5.7770490845
2731 2 23.9340236586 2.91497781125 6.43822023067
2695 2 25.5100570096 1.17009650389 4.46307349963
2730 1 26.120714257 2.05596545543 6.66791507559
2704 1 25.1537762436 3.6918549738 4.42800726676
2733 1 27.6167912314 0.415036167717 4.89436821823
2708 1 27.5338544025 2.89925548974 4.87166521674
2732 1 29.8334549641 2.05436133893 5.31232905205
2729 1 28.3562197876 1.22535339283 7.09497094599
2728 1 28.3774622918 3.68751164271 7.058760908
4055 1 33.6017263052 2.00780774017 3.97872945531
4048 1 34.4059495228 2.80788814838 6.18839878616
4050 1 32.1156193926 1.20219432709 5.75802617246
4075 1 34.3747244808 0.326942767585 6.17180492143
4049 1 32.1353397997 3.67424819002 5.74947606298
4052 1 38.2247987799 2.71767861144 4.80406677934
4053 1 35.8967842814 3.60316281586 4.40251889682
4054 1 35.8220128504 1.1461224687 4.38498968727
4074 1 36.6732220087 1.92667889498 6.55596510537
4077 2 37.9716770062 0.299397548321 4.68496053292
4073 1 38.9299678116 1.06364174662 6.88922093633
4072 1 38.9113932679 3.55194972521 6.95373668397
4076 1 40.8076051757 1.98309352631 5.24493050573
5247 1 41.1150074927 0.13038823171 7.24426740183
392 2 3.31235097275 4.90494043656 3.95694492173
206 1 0.927239597614 5.41572772082 4.31263938677
224 1 2.52106598802 6.08015753 6.04031280416
200 1 0.324623278217 6.61647926386 6.83447187787
31 2 0.500261078428 4.43881992675 6.22756922964
211 1 4.75509561918 4.15067804772 5.65812209974
184 1 4.72995436731 6.38910526013 5.64162884453
192 1 6.9304719963 5.25971518287 5.1872224267
191 1 6.81555498008 7.72719163634 5.23375672315
190 1 8.42849574049 6.91802210215 6.9517870037
195 1 9.21313290866 6.11860107965 4.77877285706
213 1 8.39195913578 4.44203221743 6.96016539806
1526 1 11.5397772463 6.95436391076 4.34392104077
1544 1 10.6865658254 5.28507642274 6.52620492765
1543 1 10.6723874897 7.76549739911 6.52815780174
1550 1 11.4894305532 4.47237577988 4.3426971829
1530 1 13.8076645808 5.30488850918 3.91694204709
1549 1 12.9935380126 6.09099819389 6.09154122078
1555 2 15.1181385806 4.44402721446 5.7335834822
1528 1 15.3570305945 6.8232894274 5.93516445732
1529 1 13.9213405834 7.77413349144 3.91469410834
1536 1 17.3067689705 5.41222721118 5.20222357578