ITEM: TIMESTEP
20000
ITEM: NUMBER OF ATOMS
5376
ITEM: BOX BOUNDS pp pp pp
0.0 42.7297273569
0.0 39.5600404449
0.0 37.0050293879
ITEM: ATOMS id type x y z
5216 1 0.4976914315 1.45243213563 1.91785552981
163 1 2.36442580003 2.28078481505 0.191091390819
186 1 2.90660414561 2.29060517723 3.10017662347
193 2 1.44079201254 3.67580011595 1.69838099183
5 2 4.31195733799 2.01336205563 1.4234703385
8 1 6.29597795034 2.89547585965 1.1755568209
9 1 6.18675957909 0.371059134078 1.19232214336
25 1 5.36159239192 1.1386372211 3.4232277004
4 1 5.44019813079 3.55058690827 3.35128377533
7 1 7.69759089932 2.04237495414 3.01109440126
10 1 9.99594056308 2.90189584455 2.57881817583
11 1 9.96690513893 0.424999346307 2.56833920966
12 1 8.47227500143 1.23815455914 0.814014400521
1347 1 10.781746092 2.08223893934 0.389739807713
1 1 8.5173940848 3.71689461192 0.826229411094
1349 1 14.4863423279 2.15491650375 1.7556583821
1363 1 12.2478095261 1.26443437948 2.1467020171
1346 1 12.3175488565 3.74651731769 2.14478341707
1352 1 16.7864199778 2.96484063702 1.63644242798
1353 1 16.7209074541 0.369146090749 1.62167399953
1356 1 19.2224388225 1.11076601571 1.45182369531
1369 2 15.826584869 1.20797682106 3.47610684669
1513 1 19.0064414796 3.30861189309 0.556124411783
1497 2 17.650062405 1.57764047875 0.0662154023582
2710 1 21.6777949743 0.945959176068 0.98899072995
2863 1 20.4271637011 2.64142991037 2.72751013673
1355 1 20.5595796722 0.11285745677 3.09044465851
1354 2 22.389955695 1.53763452871 3.47520544908
2689 1 22.4983067066 3.75522462397 2.12551954891
1490 1 21.3649901762 3.08366026365 0.175782673262
2694 2 24.7825745937 2.91817856082 2.13243141386
2699 1 25.9589607904 1.22767649719 0.469672842262
2698 1 26.0992853301 3.71449668599 0.436612683687
3868 1 26.7724035778 2.00783204291 2.70786313424
2709 1 24.316238525 0.435732280059 2.21916021534
2693 1 23.7045132098 2.1492552805 0.0744899378452
2697 1 28.3161900568 2.83741505086 0.922858099828
2714 1 29.0151762836 1.19110341458 3.11783530612
2717 1 30.5555950754 1.99985948874 1.35434475961
2718 1 28.231732881 0.389747700411 0.901961648527
2713 1 29.0434046037 3.66495087488 3.13336047773
4039 1 32.8133417028 1.15650569594 1.77129375815
4038 1 32.8192863574 3.62837052371 1.79148666384
2734 1 31.287747505 0.355512085302 3.53719856751
2712 1 31.3007968275 2.82540138152 3.56192100217
4060 1 35.0776749347 0.302051617215 2.18582582568
4037 1 35.0772899214 2.77244752719 2.20892068063
4043 1 36.5927338356 1.12740837986 0.421236003459
4059 1 37.3453282427 1.90652347542 2.63715062307
4042 1 36.5688398258 3.59260982389 0.432036249628
4041 1 38.826897722 2.77927146807 0.904945522849
4062 1 38.8303975166 0.268422666328 0.895227120751
4058 1 39.5872320346 0.949964599168 3.11546985561
4057 1 39.6605885208 3.53702628695 3.09701201232
4196 1 40.9695409502 1.84868800303 1.40773315798
17 2 41.7727658537 2.10612946266 3.69020353331
187 1 0.388169021577 7.26676181891 2.19878926803
331 1 2.29125143063 7.14429294852 0.593095817581
194 1 3.76688612746 4.50055174103 1.5483523192
185 1 2.51844603789 6.65676832463 3.20460625964
173 2 4.21852507148 6.77624053886 1.59030053237
177 1 6.16638443692 5.2985901815 1.2896029067
172 1 5.34513665883 6.14834322622 3.49883582062
176 1 6.28667560047 7.7298504205 1.26422017678
196 1 7.65507610627 4.52132274558 3.02081125018
175 1 7.68025961946 6.97744518563 3.08501498856
179 1 9.94927509619 5.36334851006 2.59167067731
180 1 8.40315323688 6.16762099135 0.845197801984
1532 1 10.7742784587 4.56468740483 0.396345826484
1515 1 10.6396571443 6.98928587234 0.428286139765
178 1 9.92476813984 7.82399108238 2.62627025379
1517 2 14.2387390608 7.0730742886 1.62308808726
1531 1 12.218313893 6.16744541765 2.19739405302
1538 1 14.677547738 4.58774306527 1.74006961197
1519 1 18.4891029966 4.02978998674 3.04778302405
1521 1 17.4976577777 5.32053390732 0.915375285256
1839 1 18.7969830294 6.67648041553 3.20126579024
1537 2 16.5843747243 5.37311908781 2.9502589118
1524 1 20.07155065 5.27285730481 1.48768949534
2868 1 22.2482749444 6.22501987009 1.96927952123
1523 2 20.7958664257 4.89382668464 3.58071913014
2692 1 26.7970494988 4.4963910101 2.73408761202
2867 1 26.0935783597 6.16447094052 0.637589740828
2883 1 26.7419363047 7.00376110685 2.78317925884
2884 1 24.551320379 5.28470353105 2.31722827582
2857 1 23.8743183606 7.0861854479 0.371045129391
2861 1 24.3060467167 7.538425938 2.82098890237
2715 1 23.818139293 4.55349255915 0.174689386365
2696 1 30.5684440268 4.47813329395 1.37937137699
2882 1 29.0259430611 6.1622348641 3.16563038977
2885 1 30.522511288 6.96366552946 1.38518041683
2886 1 28.3228298314 5.3185679822 0.98577443167
2865 1 28.2626607028 7.81000548633 0.988757791922
4207 1 32.7771374522 6.10577740714 1.79578657661
2880 1 31.2324113859 7.79679551905 3.57650157868
2902 1 31.2874040022 5.30685409729 3.57820730874
4205 1 34.9354663088 7.73343425489 2.19367350986
4033 1 34.3173325909 4.4369100787 0.00257265195407
4228 1 35.0352251038 5.24449712299 2.21620493225
4036 1 37.3214715503 4.38099157828 2.64290623186
4211 1 36.4821647914 6.06280531258 0.405068107811
4227 1 37.1482158172 6.8575672557 2.58751902494
4209 1 38.6154146825 7.74266959789 0.813834348808
4230 1 38.7098369727 5.26446018261 0.851441887682
4061 1 40.8956295645 4.55408514397 1.25440643251
4226 1 39.4185184079 5.99854634923 3.05275826265
4397 2 40.6798162259 7.07337128291 1.29437314614
4246 2 41.747633161 5.14930118691 3.41831637534
182 1 41.4131346224 7.6168890705 3.67227591618
4229 1 0.984755275619 9.52031195192 1.74187387352
355 2 3.22106805458 9.56108640741 0.791816053131
500 2 2.92178268032 10.2283970492 3.61008907075
341 1 3.91048754635 11.768750252 1.68373237669
361 2 5.6808941671 8.69782445298 3.47578548145
345 1 6.03030230723 10.1709927277 1.31537112619
353 1 5.36140790712 11.0598723733 3.55274163688
364 1 7.71048377248 9.46562732612 3.06269592057
169 1 8.44949193702 8.60763922044 0.831987567901
347 1 9.91817633578 10.2813511479 2.69458953257
348 1 8.35587947768 11.01926489 0.924594268644
1700 2 10.7195126165 9.48819398767 0.55306738486
1514 1 12.197843501 8.62492773844 2.26172289346
1699 1 12.1496419404 11.1147804012 2.24264716584
1706 1 14.3722963868 9.56640360403 1.82861422096
1844 1 12.8608492142 10.2744238561 0.0282880845809
1520 1 17.6887924196 7.93258908279 0.870149037276
1689 1 16.6533172553 10.1921245468 1.1292261431
1705 1 16.1843051904 11.318808374 3.36087467238
1708 1 18.2281316817 9.36778834257 2.82274062733
1516 2 15.9193103057 8.98582379446 3.54064902057
1848 1 19.1710050605 9.8957777165 0.318226694095
1688 1 18.5576186557 11.7384649532 1.67032722443
1842 1 20.1095898491 8.10476246025 1.85267409077
2862 2 22.3465785819 8.55211205109 2.18592806415
1692 1 20.7233776277 10.2786657045 2.78681817745
3031 1 22.75772618 10.9895847976 1.46781013925
1876 2 20.6212550081 11.8453470884 0.794148038873
2860 1 26.6355749764 9.47915672869 2.7331243679
2866 1 25.9886458649 8.54141430108 0.567272273481
3035 1 25.8868448825 11.1457254897 0.444979288261
3052 2 24.7121060224 10.8962939209 2.57235390005
2864 1 30.4528939669 9.45474835112 1.37414178669
2881 1 28.960673825 8.65483120069 3.15912751534
3054 1 28.1593325464 10.2840802945 0.969254534773
3050 1 28.902295696 11.1131055419 3.15505581136
4206 1 32.7025407124 8.5911890922 1.78478649075
4375 1 32.6808425497 11.0647270743 1.77036796063
3070 1 31.1782740089 10.2869263098 3.56562526538
4396 1 34.9230461735 10.2142106598 2.1879211456
4380 1 34.1990583451 11.8614925803 0.00362375693879
4204 1 37.1535130559 9.34390217638 2.59954251849
4210 1 36.4175244545 8.54962048321 0.406743898894
4379 1 36.4576633749 11.0178662032 0.417704510904
4395 1 37.1942387804 11.8075355934 2.62160909704
4398 1 38.7228008068 10.194555205 0.84105726303
4225 1 39.3366720983 8.47860569701 3.03488535076
4394 1 39.4356141426 10.8913669189 3.08425285184
4208 1 41.0596387289 9.30960312643 1.38127755011
4224 1 41.8127017417 10.0225513953 3.46749837699
542 1 40.7676821551 11.7135093289 1.28507568896
374 1 0.276322529024 11.9084352728 1.64027117749
170 2 2.11784950248 13.1534331706 2.36397167976
523 2 0.332001134341 15.5836092529 2.10290311255
668 1 2.37515352377 13.1763496641 0.0517146798983
343 1 7.61478617684 11.8975666422 3.10800240475
530 1 3.9927040378 14.3121869466 1.68172288942
340 1 5.508294291 13.4876516399 3.54081679578
344 1 6.11193063177 12.651986867 1.32934090869
513 1 6.25315562529 15.1237106997 1.3275698161
532 1 7.69121328377 14.3633418423 3.0953688456
1683 1 10.6144576276 11.8909989005 0.465177589934
337 1 8.39730403978 13.4916486379 0.893396200922
346 1 9.89769851093 12.7135496256 2.66643126347
515 1 9.92652332207 15.19342871 2.62734503281
1868 1 10.630114627 14.3463976134 0.427534269449
1685 1 14.4003657658 11.9949115438 1.79118082166
1682 1 12.133545764 13.5721687113 2.20412647691
1874 1 14.3729401437 14.4580758369 1.69280908806
1843 1 12.8346846501 12.7331362037 0.0025756295781
1684 1 15.7935815601 13.6869033942 3.45402247481
1857 1 16.6811073905 15.225696514 1.23810747768
1833 1 16.6435623267 12.8664851102 1.21991985272
1855 1 18.1690095127 13.899485088 3.03252100433
1849 1 19.3558370718 14.1120508322 0.973446984888
1681 1 20.6837985891 15.125386542 2.85279272121
3030 1 20.790355438 12.7126968532 2.97044581596
2016 1 22.2299431072 13.654743099 1.22980108618
3027 1 22.8705573592 14.4929455833 3.5619988182
3047 1 22.9477512339 11.9914312452 3.67891444866
3051 1 26.681532435 12.0026421506 2.72910986574
3028 1 26.6730688025 14.4491736347 2.69282610572
3029 1 24.4960970477 13.099475792 2.17852839368
3034 1 26.0604765689 13.7173798026 0.404889800002
3220 1 24.5606702893 15.4690872462 2.20241493881
3053 1 30.436763027 11.9103728001 1.37542857974
3032 1 30.4908792907 14.3823071229 1.41388363248
3033 1 28.1533636844 12.7126027005 0.958813959282
3222 1 28.2404031539 15.1799878765 0.917308252242
3049 1 28.9322060778 13.5893600268 3.13656701861
3048 1 31.1992563039 12.7678463569 3.55530223144
4374 1 32.7111155749 13.5144638163 1.75637776737
3238 1 31.2550470848 15.2314820956 3.56025333645
4564 1 34.9536862725 15.1537711855 2.15277739574
4373 1 34.9570156017 12.6794485051 2.1989555688
4372 1 37.1696717372 14.265998792 2.56875204883
4378 1 36.4383778125 13.4868056096 0.389017875145
4566 1 38.7278428906 15.0900474403 0.815230197672
4377 1 38.6607213819 12.6540347263 0.819832605266
339 1 41.0483054112 14.1511643644 1.31240331942
4393 1 39.38669092 13.376490344 3.02816305117
4392 1 41.5446540703 12.468783667 3.54500426365
349 1 41.4672417609 14.8961224875 3.53255507547
4562 1 39.2432511169 15.8034017696 3.05396508246
4703 1 2.16787054474 16.8150971081 2.00427586889
4694 1 0.091882801882 18.0466912219 1.85498329055
698 1 3.76671744411 18.949493027 1.67467484358
667 2 1.78313334852 18.2478861405 0.325083667586
509 2 4.33717754965 16.6386793752 2.03364099446
508 1 5.39456882009 18.457495376 3.45395311555
512 1 6.27782884909 17.6199493308 1.29901903137
700 1 7.62157618287 19.307596244 2.96757284441
529 1 5.61643793811 15.9433205313 3.64301085321
511 1 7.78208664604 16.8406247633 3.05322490374
516 1 8.45596112829 15.9901670426 0.85470730144
505 1 8.46855599325 18.4804865803 0.815267344212
514 1 9.95798672648 17.6866144979 2.57436122861
1851 1 10.6819663901 16.8445203297 0.37625353384
2036 1 10.6801067627 19.3317158758 0.364264093881
1850 1 12.1682952603 18.5362700083 2.12300246702
1853 1 14.3567020802 16.9150962986 1.69067673184
1867 1 12.141642158 16.0521837539 2.15232476421
2042 1 14.4120368196 19.3589858787 1.68544905095
1852 1 15.959476279 18.5508995526 3.43074338427
1873 1 15.8618007243 16.1193014422 3.35810872335
1856 1 16.6127852834 17.7141410214 1.26598102052
2044 1 18.2342503934 16.428475131 2.64408355528
2023 1 18.2417300455 19.1973843404 2.84684033929
2184 2 18.2780328645 19.1442949165 0.306652781315
3037 1 22.4036692882 16.2333418793 1.48491796663
3198 2 22.5162439184 18.6326939905 2.07419890408
3026 2 20.1612791886 16.5791345548 1.00903041007
1858 1 20.4343472177 19.1147609007 1.17081014093
3209 1 20.6332170414 17.6008066264 3.32246020397
3204 1 23.880028815 17.7857888564 0.148496808875
3203 1 26.0520293595 16.2064824128 0.42373888233
3196 2 26.5407139531 19.4592288393 2.98846682921
3197 1 24.6126268576 17.7759516829 2.43060799761
3202 1 26.2227308867 18.5923578217 0.565259768702
3219 1 26.8244007334 16.9558385007 2.64673095998
3218 1 29.0051830942 16.0676939699 3.10030598534
3200 1 30.5228222838 19.2967883016 1.29072289892
3201 1 28.3617225797 17.545333144 0.73311684461
3217 1 28.9133794323 18.552207771 3.02158846179
3221 1 30.5231068979 16.8192738958 1.32207616951
4543 1 32.7219075394 15.9870539586 1.75576202153
4542 1 32.6938119076 18.4656266818 1.74700029279
3216 1 31.1610419031 17.7126429423 3.5124578235
4541 1 34.8759563185 17.6183029205 2.18563311582
4547 1 36.479698644 15.9547166613 0.378141169995
4540 1 37.0832503429 19.1925233583 2.58740368683
4546 1 36.3952186693 18.4247255892 0.394533296687
4563 1 37.0487522624 16.7221721826 2.59112896935
4545 1 38.5735045384 17.5734796424 0.834109179529
4544 1 40.7838352152 19.1917621368 1.38672658938
4565 2 40.5501551065 16.7544380116 1.52242581693
4561 1 39.2875022154 18.3089363785 3.07133857804
4560 1 41.4818241909 17.4077761976 3.64357990062
4750 2 0.290048583747 20.4510224879 2.1245446726
860 1 0.961529098285 21.6642982773 0.45694153008
691 2 1.86255295165 23.4404545773 1.94584983782
677 1 3.72695951157 21.4881622199 1.65584526017
680 1 6.12672889113 22.609292352 1.17562754589
681 1 6.09796811177 20.052546301 1.17674907818
697 1 5.41283421501 20.9010195095 3.34685864284
676 1 5.42159334911 23.3895059361 3.36365046951
679 1 7.63201684827 21.7828211091 2.93074323699
682 1 9.89469565218 22.6406252499 2.55446935618
683 1 9.8871789131 20.1595661961 2.55846992613
684 1 8.39464851725 20.9475971217 0.777470257071
673 1 8.40249164408 23.4338090136 0.786667203259
2019 1 10.663284368 21.8041449784 0.374669551894
2021 1 14.3633618194 21.8377381587 1.75550627136
2035 1 12.1333185002 21.0058462922 2.14524190482
2018 1 12.155615049 23.4926849413 2.14878429084
2025 1 16.5554620606 20.2574659772 1.30199541383
2024 1 16.5981474476 22.735534171 1.46179823299
2041 1 15.9187149046 21.0226666953 3.48708752326
1854 1 18.154759634 21.846410041 3.22329365417
2020 1 15.8751114902 23.5452579345 3.5803490652
2212 1 18.8102496912 21.1108856515 1.09177027374
2017 1 18.8538748586 23.5337917891 0.968587076411
3367 1 22.5615428349 21.0038226579 2.26965346157
2043 1 20.3468318866 22.5648749404 2.84899413203
3373 1 20.9389599279 21.7093653226 0.827747700166
3377 1 20.5990640694 20.1962454459 3.24760705577
3363 2 22.3568997803 23.5539863786 2.00607266513
3388 1 24.5965602529 20.1018543947 1.78970274067
3365 1 24.3802862318 22.7096062639 2.45953394542
3371 2 25.7033614665 21.6907572848 0.637411231601
3387 1 26.6047837746 21.999592615 2.77592071975
3362 1 23.4893566137 22.2885254945 0.141241980197
3390 2 28.4817355812 19.9571057786 0.688763881629
3369 1 28.0937739329 22.5800300927 0.826222421003
3389 1 30.386864569 21.7806620783 1.27669729324
3386 1 28.8166615366 20.9697660413 2.97769331339
3385 1 28.9243544981 23.4257312051 3.03145825441
4711 1 32.6539615005 20.966239113 1.75015056051
4710 1 32.71282173 23.433221107 1.73996000613
3384 1 31.1964297077 22.6153082779 3.46077735664
3406 1 31.1204882703 20.1741324646 3.50605574586
4732 1 34.8838545812 20.1228420628 2.19639874998
4709 1 34.9248374817 22.5963316117 2.22177395138
4716 1 34.1969865397 21.7769559291 0.00319835215076
4715 1 36.3951859877 20.9103762934 0.421174484326
4714 1 36.4540090813 23.3780608117 0.477207745622
4731 1 37.1140389452 21.6779201666 2.59824722046
4734 1 38.5841254551 20.0237036448 0.847928594947
4713 1 38.696550431 22.4996891311 0.987116199561
703 1 41.5060442286 20.0003015715 3.61626088338
4733 1 39.2991930024 20.7630812711 2.98572793043
4729 1 39.6303785558 23.2540998339 3.18423728762
675 1 40.9861295726 21.6335328147 1.19508600246
4918 1 42.4053622262 22.8141209633 2.57289812942
878 1 0.365166981822 25.3692409063 2.0448542238
843 1 0.0460715371671 23.8589709198 0.129751105819
686 2 2.06459596603 26.990557356 2.02239473453
858 1 2.99309768397 25.0551926354 3.56513247641
1004 1 2.294056025 25.1211077921 0.136712944983
845 1 4.14635129965 26.586567122 1.55906957733
866 1 4.0860944887 24.124671408 1.54255484093
849 1 6.20403892337 25.1130912536 1.15610755124
865 1 5.40793564748 25.8879339889 3.43813236556
848 1 6.19183597098 27.6153007446 1.20488222498
868 1 7.65028544899 24.2885071785 2.96572020199
847 1 7.63636526466 26.7818077845 2.97932074854
851 1 9.91595850633 25.1233914771 2.56235913823
852 1 8.45422095843 25.9361660112 0.800422083652
2204 1 10.6685280499 24.2846987521 0.382965526103
2187 1 10.6970786671 26.7750286759 0.381341893769
850 1 9.91835764366 27.6093532971 2.57037697623
2189 1 14.4341045948 26.8268866959 1.75874791459
2203 1 12.1746631514 25.9765359915 2.15970799808
2210 1 14.4222168915 24.3293958853 1.74807185319
2022 1 18.1397654516 24.3674270436 3.16605227834
2193 1 16.672816295 25.2326098301 1.36910213566
2209 1 15.9061993328 26.0295697805 3.53093209178
2352 1 18.93644891 25.9011587179 0.885682085021
2195 1 18.2509689465 26.9174995983 3.10955401171
3530 1 21.1218271525 24.0854715677 0.17004568832
3541 1 20.4248112532 24.9841897222 2.8864962749
3534 1 22.4731922802 26.0099302839 1.71487331779
2211 2 20.5423069553 27.0750460125 1.91926401765
3370 1 25.7734003028 23.8927928251 0.551887654466
3364 1 26.7484631649 24.4319163659 2.73745754102
3539 1 26.017223504 26.1780158824 0.413702868728
3555 1 26.8224437963 26.8741237923 2.62618151902
3556 1 24.5689333484 25.2286880683 2.18906047481
3540 1 23.8481421534 27.159584442 0.00747010214059
3368 1 30.453400693 24.2487379891 1.2884540052
3554 1 29.0161764943 25.9205317596 3.06772363231
3557 1 30.5247476001 26.7417452482 1.29853860104
3558 1 28.2031646147 25.0899705178 0.856964848633
3537 1 28.3115237542 27.6184284857 0.856670191797
4879 1 32.7390793224 25.8986371606 1.72949249774
3552 1 31.2844692819 27.5456882275 3.50084535566
3574 1 31.2595852787 25.0655878528 3.49185714478
4900 2 34.9464426712 25.1044530688 2.09424770388
4877 1 34.9659699023 27.5263998073 2.15498728169
4708 1 37.219199435 24.1226445576 2.71326036341
4883 1 36.4909471158 25.8376781718 0.406157280431
4899 1 37.1485987677 26.5761421562 2.61876332207
4881 1 38.651868734 27.4219994874 0.918703860205
4902 1 38.6588992079 24.9705233221 0.978037261437
4712 1 40.8966268844 24.3497818686 1.40683394705
4901 1 40.8235733331 26.7270764192 1.45091798812
4898 1 39.3670074491 25.7691708793 3.23643209147
1027 1 0.0651173784179 27.9011282551 1.72353255529
5207 2 2.23914474382 30.7716298381 2.22280386694
1034 1 3.62390895487 28.9910249779 1.50847692717
1010 1 0.215824322779 30.3876937157 1.3312271926
1046 1 1.35014987558 28.8771619287 3.35416317369
844 1 5.38198871049 28.5745781987 3.27928708446
1017 1 6.1020582464 30.0619064535 1.2135298453
1033 2 5.64477942961 31.0729245133 3.40319852846
1036 1 7.67446171711 29.271817994 2.98054969692
841 1 8.44802905868 28.4199883813 0.803177197177
1019 1 9.93594808772 30.0932100592 2.57035555738
1020 1 8.44382810491 30.8819402441 0.792088163798
2372 1 10.7036742215 29.2553331486 0.375014445355
2186 1 12.1773523311 28.4642817028 2.15005732552
2371 1 12.1917287795 30.9442288724 2.15062964602
2378 1 14.4551925045 29.2992537277 1.76105143814
2192 1 16.7054363157 27.7086056698 1.41342252051
2188 1 15.9793810872 28.5351492976 3.55913684033
2377 1 15.9931514392 31.0028153975 3.46794875702
2360 1 16.6817786162 30.1595270939 1.31279762809
2361 1 18.1943441033 29.7275625831 3.0915885302
2191 1 19.0358210057 28.5633025579 1.10813594373
2194 1 18.9069192588 30.8918897492 0.849098590686
2363 1 20.6247186111 30.5120831541 2.76023571673
3531 1 22.0023725138 28.8768509677 1.4561812205
2682 1 22.5845009111 31.3568632107 1.9624211779
3533 1 24.5333843047 27.7834453789 2.1450357534
3532 1 26.8185910976 29.324589104 2.64524917681
3538 1 26.1062496978 28.5786212459 0.415126931118
3707 1 26.1108670317 31.0300874798 0.465213353704
3724 1 24.5970269181 30.2301182751 2.24349058375
3529 1 23.9746132006 29.5869828153 0.0838725020674
3536 1 30.5323489865 29.2201343007 1.30584794746
3553 1 29.0456052343 28.4156779992 3.0765357347
3722 1 29.0256017362 30.897869491 3.08444904152
3726 1 28.3195027035 30.0989773805 0.868133860833
4878 1 32.7594484301 28.3661905456 1.72128096041
5047 1 32.7660546619 30.8430342797 1.72410380641
3742 1 31.2689295113 30.0318069554 3.4921385803
5068 1 34.9841424386 29.9848836517 2.14880869007
4876 1 37.1629783737 29.0927549489 2.64698508916
4882 1 36.4725318859 28.312556007 0.395882440831
5051 1 36.3875507754 30.7645943129 0.339555430477
5070 1 38.5308498439 29.7967220616 0.825314368403
5067 1 37.3421495241 31.5814540128 2.45882410901
4880 1 40.7531745535 29.2643392118 1.45790833125
4897 1 39.3635097825 28.2249588348 3.13165745187
5066 1 39.5060212546 30.649460524 3.18109184978
5049 2 39.6854759403 31.6265030852 1.18670640536
5086 1 41.7733599218 29.8278153935 3.59506019575
5375 1 0.256173240879 35.1367603334 0.367752241138
1196 2 0.0688371880278 32.9673860711 1.3273830362
1013 1 4.13978536891 31.6575406964 1.58424482683
1202 1 4.02784683863 34.13903305 1.58095074061
1016 1 6.33683134457 32.5494181977 1.22458386429
1185 1 6.28820436925 35.0104202047 1.22844765846
1025 1 5.50327378628 33.4311262946 3.40183882206
1204 1 7.7743484697 34.2234109642 2.9928675486
1015 1 7.78614916472 31.7431434496 2.99427588122
2355 1 10.70181523 31.7310976545 0.376314890426
1009 1 8.54718525755 33.3824927394 0.795448039791
1018 1 9.98496951438 32.5764512887 2.576591955
1187 1 10.0178783164 35.0620309856 2.5656316709
2540 1 10.7855553277 34.2252285431 0.367311553661
2357 1 14.4400352907 31.7746147586 1.71699788109
2354 1 12.2027308943 33.4314570349 2.1763294617
2546 1 14.4052218751 34.2731909952 1.75584903715
2358 1 18.3363485561 32.2223696503 2.85418366482
2688 1 16.6496405033 32.5939421726 1.1632873561
2356 1 15.9178024825 33.3550884082 3.36304625639
2529 1 16.6417185089 35.0886234859 1.42042970244
2673 1 18.69053795 34.0286705396 1.12535502925
2362 2 20.3556721355 32.410551523 1.52634628407
2531 1 22.1107914258 33.5864721484 0.914512017311
2532 1 20.3213022298 34.5715643257 2.77101487661
3699 2 22.7032563898 33.8482433814 3.23506266858
3723 1 26.7755435233 31.7900816519 2.67642112254
3700 1 26.7434852952 34.2326984877 2.68160508868
3701 1 24.5577801553 32.6912669704 2.17851442432
3706 1 26.0540990587 33.4523207632 0.407621003893
3892 1 24.5104014329 35.0746846941 2.19030808948
3725 1 30.5265074029 31.6968489136 1.30167692002
3704 1 30.526130029 34.1615150596 1.30824827744
3705 1 28.2880434704 32.564280784 0.878599225233
3721 1 29.0148752815 33.367843394 3.0933837554
3894 1 28.2658024182 35.0262709872 0.884995496623
5046 1 32.7917081562 33.3021525337 1.70975854951
3910 1 31.2648299472 34.9824740984 3.5033903474
3720 1 31.2806653592 32.504607011 3.49400675004
5045 1 35.0440937768 32.4460342059 2.11641919656
5236 1 35.006628765 34.9370355349 2.16607859552
5044 1 37.2302655043 34.0811456746 2.59302535133
5050 2 36.6347712496 33.2425999646 0.381078317923
5238 1 38.6661008114 34.9799674456 0.823120868493
5065 1 39.4474514871 33.1551840328 2.95624776814
5237 1 40.7581970148 33.9013994245 0.877191251391
5254 1 41.7834982524 34.4954518622 2.99882086911
5234 1 39.5436980989 35.5787872996 3.01287744372
1178 2 2.04894044244 35.8828750723 1.94002356524
20 1 0.573955043104 37.7396699188 1.7463715686
1207 2 1.67930468046 39.4162652339 2.8863487979
26 1 3.79986733032 39.2174215457 1.63598668945
1181 1 4.10296909603 36.6993536825 1.61052252586
1201 1 5.51236102477 35.8499718357 3.41633476643
1184 1 6.25582455671 37.5210963088 1.19502128006
1180 1 5.333448806 38.2853899952 3.39540684811
1183 1 7.73618288778 36.6949655104 2.97925613423
28 1 7.66446792795 39.1409098882 2.98523569569
1188 1 8.5319760929 35.8661870263 0.786746678916
1177 1 8.50459912994 38.3448293146 0.768959275408
1186 1 9.99892578342 37.5258086949 2.56392695923
2523 1 10.7854040871 36.7040813685 0.367886591445
1364 1 10.7950865539 39.1766204254 0.373805092115
1370 1 14.5294084761 39.1905697844 1.74164349734
2539 1 12.2754716752 35.8992452664 2.16704556204
2522 1 12.2444336699 38.3700765547 2.12463425185
2525 1 14.5152733324 36.7327545584 1.67809955284
1351 2 18.4718586777 38.813148631 2.73753242619
1372 1 18.4504100077 36.4586206925 2.56133416697
2528 1 16.7734445248 37.5759376153 1.30947271239
2545 1 15.8727518973 35.9144609274 3.45990434774
2524 1 16.2054024792 38.2709414909 3.60770032735
2716 1 19.7176747374 38.3329643152 0.736496231363
3702 1 22.2415140024 35.8679687458 1.84727523381
2521 1 20.0039221693 35.9651434014 0.646784475535
2530 1 20.6609250964 37.268107959 3.14373342985
3865 2 22.3228078244 38.3258451585 1.74104072393
3875 1 26.0159330717 35.8903209839 0.435046220204
3869 1 24.4319708727 37.4962567691 2.28740288517
3874 1 25.9274695847 38.3486696452 0.449867969667
3891 1 26.7412298796 36.6975428063 2.6424150879
3885 1 26.6680745571 39.153694017 2.65175218794
4015 1 23.8672721244 36.8393070654 0.0100449934697
3890 1 29.0044101912 35.8393104634 3.08937949423
3872 1 30.5068004578 39.0995219272 1.33301509524
3873 1 28.2311279778 37.4986438903 0.878262996091
3889 1 28.9678974026 38.3016660051 3.09931211754
3893 1 30.5034947656 36.6370175148 1.31576254935
5215 1 32.7682989306 35.7793091647 1.73474306861
5214 1 32.7786391938 38.2496305981 1.75141181141
3888 1 31.2567673179 37.4541776472 3.51669756333
5213 1 35.0435575848 37.3926029783 2.1785101171
5219 1 36.4885715749 35.759986619 0.383123881061
5212 1 37.3387250878 38.9870168519 2.63289985095
5218 1 36.5350527483 38.2145086736 0.419329153804
5235 1 37.3077220031 36.5338900296 2.61344462225
5217 1 38.7641765437 37.3755854607 0.826903779944
4056 1 41.9270382816 39.4281564289 3.54468381773
4078 1 41.099650837 38.8946913865 1.28361409809
5233 1 39.5954476921 38.0857184095 3.07755078706
1179 1 40.9492129776 36.3320705193 1.14482613897
5232 2 41.6390450731 36.997599747 3.10748270122
18 1 3.19158289376 0.309787901706 4.36636470061
14 1 1.13616167164 1.84098123608 4.60297008528
37 1 2.38052583986 0.851971710847 6.43578767212
13 1 2.7575327932 3.20305278559 5.79126612634
1208 1 0.711319173079 2.3652409249 7.35669945564
16 1 4.68710530903 1.79107576987 5.68100155193
23 1 6.901168383 2.84676661657 5.19138103824
24 1 6.9038372287 0.367227210888 5.19175790005
22 1 8.4217647642 2.05144238564 6.95731689723
27 1 9.18953447799 1.24070136648 4.76322110068
1375 1 10.6879311053 2.90866911185 6.51759435529
1376 1 10.6995784319 0.430105307259 6.5135822973
6 1 9.20284083959 3.72109459281 4.76345382318
1358 1 11.4770785965 2.08984949113 4.32877259049
1361 1 13.7528082253 2.94518447545 3.93531026318
1362 1 13.7203222088 0.436561938651 3.93774169825
1360 1 15.1926999484 2.05895000039 5.6915659596
1381 1 12.9456587564 1.2710544632 6.07795066211
1357 1 12.9514193211 3.73151646798 6.12393610777
1540 1 18.2859004029 1.65330500408 3.80558317809
1348 1 16.1762951676 3.42731363603 3.9360453307
1368 1 18.1475964565 0.965449366236 6.14227349929
1359 1 17.3188531729 3.19636661211 6.19642445732
1367 1 19.5639237625 3.36155602699 5.17483612285
1371 1 20.5185170825 1.28006894336 5.25298819152
2726 1 21.6987163399 3.4426692561 7.07967652881
2691 1 22.2073911783 3.42379048618 4.78242202153
2731 2 23.9663886567 2.72037908775 6.28545427281
2695 1 25.0790183495 1.23254624561 4.42370404416
2730 1 26.0904791915 2.0132791554 6.64007978707
2704 1 25.1426096255 3.72886386345 4.45325118208
2733 1 27.43652734 0.396823983518 4.88231575645
2708 1 27.4939428284 2.86155804008 4.87060046798
2732 1 29.7699336307 2.01297677971 5.31722077123
2729 1 28.2869935762 1.17150585267 7.09197949448
2728 1 28.2804370908 3.65023017605 7.0909040133
4055 1 33.5601695218 1.97440313672 3.98085091762
4048 1 34.3115195388 2.7823574712 6.20412816516
4050 1 32.0475254674 1.17133908265 5.74679767793
4075 1 34.3028475917 0.303354650252 6.14952807479
4049 1 32.055357102 3.63924594348 5.77261587509
4052 1 38.0525449837 2.7312575775 4.81482793252
4053 1 35.7950318122 3.58802176836 4.41613127062
4054 1 35.814285416 1.10714826339 4.39006367424
4074 1 36.5543160715 1.90975064674 6.58834339062
4077 1 38.0536993512 0.231935976566 4.83327665765
4073 1 38.772747528 1.05876366727 7.03717249432
4072 1 38.7994742432 3.52558721697 7.01675865748
32 1 42.2817138752 0.82676172287 5.83374220169
4076 1 40.2064869824 1.83673012897 5.27971736008
4095 1 41.0176837054 2.59137058959 7.37191653516
392 2 3.47656506871 4.55622516959 3.87304568474
206 1 0.582173437182 6.43715757286 4.62515205939
224 1 2.64946405422 5.93336463626 5.88898153524
200 1 0.280637254485 6.35335166463 7.03700263491
31 2 0.876384772481 4.32130685502 5.85923137042
211 1 4.86791950552 4.23943256385 5.67759215934
184 2 4.96598145285 6.48098213565 5.80099802734
192 1 6.99458130855 5.31754928597 5.20450950697
191 1 6.88422256589 7.79285357535 5.27751753692
190 1 8.46404295559 7.03485657258 7.00747740915
195 1 9.20935675178 6.19700834513 4.8019008979
213 1 8.42068573635 4.53919839416 6.97435848832
1526 1 11.4912059342 7.03177142601 4.36269143291
1544 1 10.7107878998 5.38231379176 6.52848623582
1543 1 10.7037776732 7.8654470215 6.57169491555
1550 1 11.5291756213 4.57451496371 4.3259130029
1530 1 13.9603666943 5.42971640477 3.89716498241
1549 1 13.0025013687 6.20318974719 6.0723175977
1555 2 15.1272738278 4.52647321642 5.81509765309
1528 1 15.3854157268 6.93391779693 6.04406494789
1529 1 13.7886490526 7.83742216739 3.9983902887
1536 1 17.4453068196 5.41698931617 5.16960118744
1350 1 18.9987476975 4.71201380302 6.98733577807
1539 1 17.8347379557 6.94784600259 7.31328393255
1522 2 19.4149529288 6.83847290039 5.6017040004
2873 1 23.0238748528 5.61831536668 4.1597758147
2874 1 21.3550370006 5.6078936508 5.94404152927
2879 1 21.4551339605 7.54673933225 4.09407701315
2899 1 23.6813887561 5.205774019 6.40367737861
2878 1 25.3060060217 6.08228730277 4.57024471991
2898 1 25.9615008697 7.00050015417 6.68494056022
2703 1 26.0176399379 4.49376841505 6.64064173847
2872 1 23.6504441401 7.64816291763 5.76610962178