ITEM: TIMESTEP
14000
ITEM: NUMBER OF ATOMS
9560
ITEM: BOX BOUNDS pp pp pp
0.0 88.6430375159
0.0 28.55
0.0 44.3215187579
ITEM: ATOMS id type x y z
2 2 0.882761060491 0.901069395256 0.907689977637
491 1 2.51191576436 2.75225040688 0.628076006392
11 1 1.52143067611 0.545672960596 3.51106673193
12 2 3.43337507982 1.80118003833 2.45466892384
489 1 1.95330989347 3.3146153203 3.59488926143
1 1 0.00783998674287 2.51250930707 2.15364561587
29 1 6.72026630477 1.47188274123 3.03908665627
508 2 6.03997070315 3.10138574906 1.24076489294
31 1 7.46801469522 1.46130115962 0.301531882513
57 1 10.1270857678 1.49151525129 1.00826877793
534 1 8.41257169638 2.92718444863 2.03311056671
56 1 8.41558051517 0.0408515446239 2.01076712716
87 1 11.1174908879 0.0587172590211 2.7463436531
565 1 11.1195220319 2.95541397644 2.75345200536
88 1 12.8481811553 1.50018487012 1.72851495395
597 1 13.8382097982 2.94971326696 3.46044017951
599 1 14.5596109065 2.91741381568 0.70103504761
121 1 14.5731259645 0.0502503333744 0.694933558557
119 1 13.8426461656 0.0556941550869 3.46068280438
120 1 15.5613592226 1.48370802362 2.43175891719
151 1 18.3058919123 1.46444719882 3.15636685571
630 1 17.3033767313 2.87815054247 1.40570991604
152 1 17.2913045539 0.0518492584123 1.40199165324
153 1 19.0250099101 1.45907369084 0.378806739194
185 1 21.781083978 1.45160883687 1.11703016119
662 1 20.0423483579 2.8796022568 2.13251867072
184 1 20.040494037 0.0353634867927 2.13109188766
216 1 24.525233767 1.44560154724 1.84631960823
693 1 22.7885562618 2.876718114 2.86135351605
695 1 23.5204161478 2.87295792133 0.103830855468
725 1 25.52957636 2.87554433244 3.59048569895
215 1 22.78672917 0.0249250126968 2.86168113037
217 1 23.5211596637 0.0187260192709 0.10327004284
247 1 25.5230071133 0.0192049938318 3.59271554089
248 1 27.2594990207 1.44120028798 2.57678649188
727 1 26.2612068094 2.87060787894 0.834357661395
759 1 28.9930193768 2.8697454574 1.56691368205
249 1 26.2617421202 0.00839120234949 0.831981927562
281 1 28.9872390786 28.5500554318 1.56541253073
280 1 29.9907234213 1.43552077165 3.30494291691
282 1 30.7121764356 1.42682859702 0.54528067419
791 1 31.7178920907 2.86315311599 2.28360987005
314 1 33.4278368898 1.41444527352 1.25787018785
345 1 36.1538685332 1.40003726639 1.9748405106
822 1 34.4373544948 2.84900789055 2.99719348426
824 1 35.1596482778 2.83849571973 0.240009892417
376 1 38.9066898977 1.32853492395 2.70270076014
855 1 37.8881657776 2.80701787198 0.960250750707
887 2 40.3950851419 2.84683383912 1.83428306696
378 1 39.4794150358 1.2398297804 0.0117468959418
410 2 42.8958533585 0.926070949508 1.20890898008
918 1 43.9910431899 2.67435089909 2.69281713422
408 1 41.7987894453 1.37199329779 3.40768967312
1396 1 42.143087217 4.02663840112 0.510184403237
886 1 41.7364075074 4.055288542 3.35540406864
4866 2 45.9228839442 0.982585019715 2.84421455769
5378 1 46.1628080417 1.72442898938 0.538634299043
5346 2 44.5244644406 3.8317798388 0.60931755184
5824 2 46.2561273673 3.93783093538 3.11254141063
5344 1 48.0109791877 2.67415513101 2.46596451696
4899 1 49.7676235889 1.06933362267 3.14361587766
5411 1 50.5766772663 2.87314645838 1.41204042371
4901 1 49.0219744812 1.11763022053 0.536238817057
5347 2 48.0903547916 3.11093068769 0.224056300389
4932 1 52.3807321728 1.4550594118 2.49650320662
4964 1 55.1809502918 1.39727963816 1.7617081155
5443 1 53.4332024519 2.83915094204 0.723106371446
5441 1 54.1474799039 2.81599904828 3.51685106777
4997 1 57.9512904488 1.37181609002 1.04167291794
5474 1 56.9274545953 2.8032453499 2.77448799104
5315 1 56.2186915743 2.80547573267 44.3275935347
5028 1 61.4064297374 1.38640185456 3.0566534904
5030 1 60.6888502895 1.36649201352 0.320253852151
5507 1 59.6746544908 2.80389881702 2.0526565954
5540 1 62.4099987041 2.80393696917 1.33204516075
5061 1 64.128397958 1.36981555872 2.35461019971
5572 1 65.1421043815 2.80384694141 0.60951825564
5570 1 65.8629887602 2.80168836855 3.36630002057
5093 1 66.8748882325 1.3781634859 1.62506098682
5126 1 69.6256098575 1.38672600316 0.902854244858
5603 1 68.6097353687 2.80923585704 2.63944983819
5157 1 73.0918937579 1.38778957012 2.93266184133
5636 1 71.3635637443 2.82020287699 1.91472413041
4998 1 72.3692576613 1.38882754265 0.182786676902
5124 1 70.3464940789 1.38400700843 3.65422678346
5189 1 75.830307996 1.384677017 2.21428119579
5668 1 74.0995149762 2.81602993017 1.19628724451
5698 1 76.8366118339 2.81350607116 0.47804439515
5696 1 77.5634145128 2.81262788275 3.22491851763
5219 1 78.5813317025 1.37356801367 1.49199144939
5718 1 80.3318448767 2.7906171689 2.49546901271
5241 1 81.345359702 1.35326381357 0.750964410431
5731 1 83.1350417517 2.68893848569 1.75397576612
5239 1 82.0602984365 1.34558085863 3.53045221467
5252 1 84.8438577792 1.19499008167 2.89514970906
5257 1 87.7255334559 0.441718973395 2.71599777024
5736 1 86.0934970562 2.231359578 1.25244216714
480 1 1.15429682831 4.58000181284 1.68584119866
958 1 1.27250365484 7.21279682923 1.66461960054
969 1 3.12231020652 5.71748260403 0.810434992479
967 2 2.60792024263 5.75169971563 3.35584751139
490 1 4.02959406189 4.15098602924 2.4245366017
968 1 4.01414893682 7.254411965 2.39504084688
507 1 6.59863835315 4.2958376733 3.1099396568
985 1 6.59943418161 7.22624556055 3.06644312695
986 1 5.71298200328 5.76139195316 1.32091231503
987 1 7.34834035038 7.19717660663 0.243768807069
509 1 7.50005247662 4.40813478937 0.223419885108
535 1 10.0822170375 4.33851814442 0.978097162574
1012 1 8.36373525238 5.80992464025 2.04900083822
1013 1 10.0759698076 7.21769863704 0.986096132899
1043 2 10.9634177863 5.77740915603 2.70081174122
566 1 12.8257135448 4.36028679267 1.73160021707
1044 1 12.824788425 7.17011057052 1.74342898112
1075 2 14.0213153276 5.7530186598 3.357659323
1077 1 14.5664093015 5.76690067067 0.724306343329
598 1 15.6070397193 4.30604508785 2.42088354027
629 1 18.3088495644 4.31045702574 3.15686170253
1076 1 15.6106781667 7.19784506986 2.43826705943
1107 1 18.3101353382 7.16657518116 3.17085374855
1108 1 17.3281549755 5.74900888901 1.41956527206
631 1 19.0351702387 4.30303382399 0.386982439351
663 1 21.7796669572 4.30308372699 1.11864051553
1109 1 19.043585522 7.16626049256 0.397056976381
1140 1 20.0434518267 5.7329793329 2.13790043284
1141 1 21.7744478021 7.15984465799 1.12397928548
694 1 24.523792101 4.30176873115 1.84771543051
1171 1 22.7868331508 5.73020759286 2.862974972
1172 1 24.5192644038 7.15691724533 1.85094732894
1173 1 23.5145663708 5.72854839393 0.105896577541
1203 1 25.5306596273 5.73048234377 3.5917642253
726 1 27.2659541994 4.30452793889 2.58034763317
1204 1 27.2686999287 7.15581221205 2.5842219298
1205 1 26.2581747994 5.72875321018 0.837542745703
1237 1 29.0033863594 5.73291940902 1.57399521457
758 1 30.0083353202 4.30774146889 3.31342316638
760 1 30.7184731727 4.29362139678 0.543787599705
1236 1 30.0366658378 7.15957804844 3.3273317973
1238 1 30.7289235874 7.15272440926 0.548562313124
1269 1 31.7191061278 5.70681206872 2.26660143429
792 1 33.4484161323 4.28461457232 1.26078563183
823 1 36.1843683026 4.26210353236 1.98105237207
1270 1 33.4654570901 7.13836178227 1.26698458988
1300 1 34.4755012729 5.69395507064 2.9901373077
1301 1 36.2022649736 7.12732168549 1.99145636288
1302 1 35.1935707072 5.69915404192 0.247305994161
854 1 38.8452925149 4.26179504052 2.71450203504
1332 1 38.9423179408 7.0956475286 2.73051452722
1333 1 37.9317289446 5.66835184646 0.947209326068
1365 1 40.6337939641 5.58779316343 1.67229575394
1364 1 41.633470564 7.0091604519 3.40941983781
1366 1 42.3673426104 6.92247337291 0.553635512166
6217 1 43.3115496207 5.44601681106 2.23143897475
6302 1 44.8422515671 6.21131047893 0.149679624359
5822 2 47.5910748745 6.53823083371 2.43142617544
5739 1 48.976605376 5.02915628627 0.800136657439
5377 2 49.9292950834 4.51837886764 2.96254810625
5855 1 49.8436098056 7.13254598758 3.01835113333
5889 1 51.0405113096 5.85013964007 1.33603076876
5857 1 49.0616139609 7.44395482749 0.491239959961
5410 1 52.4331814779 4.21553417554 2.48910629518
5442 1 55.1968487638 4.22645572648 1.7521930919
5888 1 52.6640816383 7.13927532313 2.4806939992
5920 1 55.2260419737 7.09541565544 1.75278625431
5921 1 53.5039478818 5.66703297812 0.696592610574
5919 1 54.2123140819 5.63570675682 3.51216215412
5475 1 57.9453663667 4.23523377954 1.03235985282
5952 1 56.9373136213 5.65561342719 2.77466079795
5953 1 57.9519588155 7.09526297733 1.03439425051
5793 1 56.2179296246 5.67103338853 44.3283267037
5506 1 61.4012096842 4.23143917089 3.07181660515
5508 1 60.6880873232 4.23833712081 0.313185002703
5984 1 61.4054621797 7.0942179903 3.07159993381
5985 1 59.6767764484 5.66384570958 2.05234984746
5986 1 60.6895604092 7.10186171519 0.31296094259
6018 1 62.4123949924 5.66654331107 1.33103894534
5539 1 64.1368938948 4.23323039271 2.34950814768
6017 1 64.138462553 7.09478485279 2.34930539853
6050 1 65.1455022155 5.66672307005 0.607425388848
6048 1 65.8651272295 5.66171990973 3.36620903996
5571 1 66.8748830814 4.23527927958 1.6247125041
5604 1 69.6259834013 4.24302010993 0.901913192226
6049 1 66.8759727524 7.09419820391 1.62485602972
6081 1 68.6070034243 5.66417496962 2.64008899663
6082 1 69.624948185 7.09222774624 0.902007938799
5635 1 73.087258836 4.2378545969 2.93345563343
6113 1 73.0861915583 7.09628510428 2.93317431029
6114 1 71.361804936 5.66783203727 1.91338340033
5476 1 72.3650722064 4.2414772476 0.176065130691
5954 1 72.3657283677 7.09918924339 0.17373852388
5602 1 70.3449454876 4.2392748286 3.65014776562
6080 1 70.3427032955 7.08939057542 3.65129313458
5667 1 75.8346911149 4.23534955749 2.21267796852
6145 1 75.8360671184 7.09875809393 2.20789375206
6146 2 74.1012029974 5.67017587959 1.19144438794
6176 1 76.8341814356 5.66112191615 0.474906355797
6174 1 77.5574922248 5.66546616781 3.21721397656
5697 1 78.581364432 4.22994214295 1.48602463148
6175 1 78.5693835978 7.08818160848 1.48162954216
6196 1 80.3236208607 5.65196969568 2.48348553996
5605 1 84.3023790168 4.09104175895 0.146355861465
5719 1 81.3774310774 4.20039109143 0.758002926548
6197 1 81.2867148541 7.11062178093 0.751219599859
5730 1 84.7649896843 4.17801911924 2.6424815569
6208 1 84.6437238099 7.16882395823 2.80593453971
6209 1 83.0563790975 5.65329994051 1.71073862169
6195 1 82.0405680595 7.08471050613 3.49440410233
5717 1 82.0822550231 4.21219210416 3.47260594445
479 2 88.1379031728 5.98243628314 2.31582220067
5735 1 87.1601068184 4.18914330824 1.49547856012
6213 1 87.5698382144 7.91839015526 1.43388882581
6214 1 85.7521906079 5.95331735609 1.02371256524
6212 1 86.2932350917 5.69454726048 3.68445852455
1436 1 2.94563635075 8.60026479722 0.613579471214
1925 1 2.68620116379 11.4521506526 0.530930195675
1923 1 2.08057175092 11.3166656725 3.36766150459
1445 1 2.13023413763 8.58158794091 3.38055334767
1915 1 0.972588367306 9.67772724962 1.53697667449
1446 1 3.81012040988 10.0598118918 2.31789889807
1463 1 6.57515504527 10.0875386034 3.04493461524
1464 1 5.62067442598 8.65329200871 1.28846094973
1942 1 5.53010709953 11.487793088 1.28534484509
1465 1 7.31653348441 10.0551736545 0.255636135422
1490 1 8.32992577177 8.62795045592 2.01967777002
1491 1 10.0872540582 10.0225099721 1.0101852114
1968 1 8.33379074712 11.4605727664 2.01069250261
1999 1 11.1008979219 11.4499026452 2.74456399415
1521 1 11.104107693 8.57794085489 2.7595769322
1522 1 12.8350896057 10.0102572969 1.7445460451
1553 1 13.8470794217 8.5729072088 3.47327383493
1555 1 14.5677297248 8.59815360514 0.726677384679
2031 1 13.8416915149 11.4308124737 3.46260950821
2033 1 14.5751666806 11.4422297854 0.728083650741
1523 1 11.8372068306 8.59533801069 0.00220394875664
1554 1 15.5883325704 10.0338928101 2.4909772858
1585 1 18.2934416246 10.0281355238 3.20588723504
1586 1 17.3170128988 8.60535417264 1.43678978441
2064 1 17.3092275479 11.446407375 1.46173638928
1587 1 19.0389948878 10.0191441488 0.409124041346
1618 1 20.0345977165 8.59494166647 2.15433062842
1619 1 21.7720010105 10.0122001038 1.12971577044
2096 1 20.0293190355 11.4380284722 2.16432092801
1649 1 22.7804808336 8.58725708519 2.86964095233
1650 1 24.5205470245 10.0059836856 1.85314124234
2127 1 22.7840874735 11.4322238645 2.87123999123
2129 1 23.5127880532 11.4319055104 0.109738894957
1651 1 23.5112531919 8.58203092335 0.108345298148
1681 1 25.5311666468 8.5797599301 3.59473842834
2159 1 25.5334830367 11.4296027637 3.59531911322
1682 1 27.2715438825 9.99798926825 2.58762332796
1683 1 26.2575480042 8.5791194766 0.839347450324
1715 1 29.0071470959 8.57385591124 1.57665597072
2161 1 26.2594247875 11.4276601619 0.841006240216
2193 1 29.0064426537 11.4188134214 1.57739491219
1714 1 30.0304467595 9.97686667123 3.33526342829
1716 1 30.734446592 9.99721668791 0.553188575667
1747 1 31.7347456849 8.58411741908 2.28409342495
2225 1 31.7379675071 11.4193713218 2.29817120716
1748 1 33.4684228946 9.99336440484 1.27712970912
1778 1 34.4738896874 8.57711698429 3.00937238785
1779 1 36.2108498857 9.97658186266 2.01824017801
2256 1 34.4692680331 11.4115796239 3.02877474889
2258 1 35.2074341752 11.4080442085 0.269718052818
1780 1 35.1970224411 8.56082360697 0.263870965632
1810 1 38.9774952018 9.93969077728 2.78475957186
1811 1 37.9498883422 8.54230781706 0.999371174803
2289 1 37.9586717129 11.3780075998 1.01662374199
1843 1 40.7097191131 8.47800164995 1.7250985176
2321 1 40.6967865304 11.3580829638 1.77500403352
1844 1 42.3268080782 9.88596691006 0.672069068772
2352 1 43.1157320617 11.301649854 2.47754715231
1874 1 43.3029223999 8.40699835342 2.53378723346
1842 1 41.6035717456 9.86489006435 3.6260478322
5856 2 47.3979608507 9.181022814 0.647756293185
6695 2 44.6012003815 9.85813966124 1.47091736386
6215 2 46.3840708623 11.7168322101 3.59892278131
7259 1 45.1722112993 12.2332274553 1.65730479665
6812 1 48.0328283709 11.3689314947 1.97351540559
6334 1 48.0582119044 8.82936785794 2.69431619342
6333 1 50.0279253767 10.0424874981 3.05111217042
6335 1 49.380935375 10.028614182 0.400379266558
6367 2 51.0832511941 8.52799257997 1.52055546016
6845 1 50.8935847013 11.5031192679 1.32692550629
6366 1 52.6171591921 10.0254513724 2.45195041406
6398 1 55.2714872665 9.98856159691 1.74413384365
6399 1 53.5791535816 8.5721792119 0.696327849343
6877 1 53.5685748048 11.4338817901 0.695237309628
6875 1 54.279681506 11.4222515931 3.49778949109
6397 1 54.3060529219 8.56973842383 3.51061001642
6430 1 56.9606657842 8.5291825155 2.7763973738
6431 1 57.9680366965 9.96510795793 1.03143572291
6908 1 56.9850420705 11.4112391129 2.7774101866
6271 1 56.2416534127 8.52910603969 44.3228065674
6749 1 56.2757891077 11.4217043273 44.3261272794
6462 1 61.4086951378 9.96106537282 3.07215754434
6463 1 59.6823452601 8.52775860089 2.05368089373
6464 1 60.6893173762 9.96407512115 0.311720120282
6496 1 62.4134797645 8.52993421247 1.33150966361
6941 1 59.6888830654 11.3996988598 2.05413729194
6974 1 62.4159029905 11.3981698231 1.33455159064
6495 1 64.138538082 9.95864294489 2.35002377387
6528 1 65.1462307879 8.52737231861 0.609077823555
7006 1 65.1467238644 11.3966844874 0.620858793083
6526 1 65.8659148145 8.5238242824 3.36483524102
7004 1 65.8620848661 11.3961197254 3.35715355682
6527 1 66.8761974299 9.95366743733 1.62626938529
6559 1 68.6077579179 8.52037426752 2.64103349674
6560 1 69.6226709403 9.94574452733 0.903461450347
7037 1 68.6062268141 11.3798917323 2.64169869884
6591 1 73.090245673 9.93917837107 2.93521612354
6592 1 71.361301905 8.51266720927 1.91551195483
7070 1 71.3591049152 11.367255997 1.92266622367
6432 1 72.3709324361 9.94139614673 0.179649560817
6558 1 70.3396406833 9.94519357486 3.65687545687
6623 1 75.8284970848 9.94055056926 2.21784499537
6624 1 74.1029160754 8.51714553299 1.1901729754
6654 1 76.8399431748 8.52233227069 0.462670483816
7102 1 74.1006309398 11.3707706683 1.19973720344
7132 1 76.835978327 11.3693056635 0.480318408193
7130 1 77.5591673986 11.3697791672 3.25450451305
6652 1 77.5598434609 8.5141141546 3.23094865509
6653 1 78.5637311848 9.95238454445 1.49316306805
6674 1 80.2931846045 8.52483393502 2.51096527329
7152 1 80.2848009098 11.3928428851 2.54442546226
6675 1 81.247945175 9.98698562725 0.76573333374
6686 1 84.6437738647 10.0202394455 2.84007955394
6687 1 82.9493765698 8.5792523001 1.77579277262
7165 1 82.9797565871 11.4349208923 1.81999912245
6673 1 82.0106587635 9.96448324301 3.55345802534
6561 1 83.9066159348 10.0315225341 0.00798875757623
6691 2 87.2081905969 10.0887697033 2.10127880568
6692 1 85.4392869679 8.59085270468 1.05519819987
7170 1 85.5595402303 11.447992673 1.11071273905
1914 2 1.16295557912 12.9527000952 1.88729023868
2392 1 1.12213632752 15.7388440632 1.91824250633
2401 1 2.15357768063 14.2957789566 3.45325704823
2403 1 2.77088621731 14.4482340032 0.616234063401
2402 1 3.89259844358 15.7086291496 2.39408621459
1924 1 3.76451033984 12.8742450956 2.30851355338
1941 1 6.57085664406 12.8638076276 3.03438845897
2419 1 6.5972960401 15.7242417917 3.04301275924
2420 1 5.55726566472 14.3192816632 1.30242629191
2421 1 7.33042286491 15.7351052042 0.278090195182
1943 1 7.31265377463 12.8867006371 0.274477237363
1969 1 10.0838258239 12.8742399123 1.00314703708
2446 1 8.32956861551 14.2980113777 2.01740720724
2447 1 10.0877117849 15.7204812678 1.00247551651
2477 1 11.0993875815 14.2987721495 2.73919524812
2000 1 12.8367808962 12.8671853413 1.73022838447
2478 1 12.8393139776 15.7204469845 1.72098861554
2509 1 13.8356268798 14.3102502358 3.4464869948
2511 1 14.5792977986 14.283559062 0.719860208868
2032 1 15.5836449143 12.8565777513 2.48964907215
2063 1 18.3033682878 12.8622992978 3.20760551906
2510 1 15.5853185194 15.7065570042 2.46086217893
2541 1 18.3070671295 15.7108430377 3.17232994531
2542 1 17.3080713358 14.2785216749 1.44607513817
2065 1 19.0397049581 12.8613684569 0.411966464333
2097 1 21.7748845172 12.8574944064 1.13031252861
2543 1 19.0410770705 15.7111708124 0.406745783644
2574 1 20.0418078369 14.2839177118 2.15558971141
2575 1 21.7806249428 15.7121264225 1.1258452636
2128 1 24.5223952489 12.8563095051 1.85282313611
2605 1 22.7871004975 14.2824612851 2.86868911628
2606 1 24.5230603461 15.7106619401 1.84905052339
2607 1 23.5147725982 14.2834758317 0.108451567453
2637 1 25.5318855259 14.2836380699 3.59418913322
2160 1 27.2691055026 12.853430505 2.5832309501
2638 1 27.2633318565 15.711426024 2.5782752747
2639 1 26.2588285666 14.2815050165 0.836778719289
2671 1 28.9987022226 14.2813039528 1.56492613804
2192 1 30.0067723551 12.8545266484 3.31029518596
2194 1 30.7324066666 12.85028401 0.550983391213
2670 1 30.0005734173 15.7119690096 3.30789242886
2672 1 30.7299950179 15.7058731071 0.542501358288
2703 1 31.7347291224 14.2799690694 2.28843358703
2226 1 33.4714797973 12.8448627286 1.2785961127
2257 1 36.2099968413 12.827018006 2.01780343897
2704 1 33.4677389729 15.7016453338 1.26801744406
2734 1 34.4710758053 14.2721961829 3.01958766094
2735 1 36.2011476238 15.6944626454 1.99972467313
2736 1 35.2070095325 14.2671230658 0.262188017951
2288 1 38.9453150436 12.8213741556 2.76094615633
2766 1 38.9450441254 15.6910664233 2.73391936765
2767 1 37.9348810509 14.2460857802 1.0035057497
2768 1 39.637011116 15.6802756547 0.00407102482788
2799 1 40.670952494 14.2385939124 1.74030152468
2322 1 42.4199914059 12.7938362236 0.690597542531
2800 1 42.351286878 15.6437328406 0.733235761449
2830 1 43.4919733036 14.1804740143 2.40370049189
2798 1 41.706878831 15.6647488078 3.49895111138
2320 1 41.6457722127 12.8896405094 3.50899027055
6780 2 45.8082826087 14.3851068274 1.31068276051
6778 1 46.0683634968 13.8992715479 3.61203901399
7290 1 48.1114986543 14.1946915076 1.99135335281
6811 1 49.8574888358 12.7150335114 3.03604583703
6813 1 49.0707866726 12.848984586 0.247053572017
7289 1 49.8813355773 15.6157147906 3.07740989449
7323 1 50.8018002967 14.2185322758 1.37590049937
7291 1 49.1588645334 15.7228258844 0.412116774691
6844 1 52.5802851736 12.8448323091 2.4343860039
6876 1 55.2780851135 12.8477729493 1.75453945611
7322 2 52.5323578919 15.6600437549 2.41719183306
7355 1 53.5974519378 14.2592331454 0.713871036711
7353 1 54.2575988604 14.2643373381 3.49400074962
7354 1 55.2475325044 15.7122251354 1.76269811103
6909 1 57.9798338204 12.8492523844 1.03534373186
7386 1 56.9752976585 14.2867767815 2.7811688388
7387 1 57.9671178848 15.7120134516 1.03370144116
7227 1 56.2576036957 14.2889947807 44.3310182195
6940 1 61.4083568873 12.8313844791 3.07342259864
6942 1 60.6942554276 12.8341160851 0.314465321099
7418 1 61.4097125873 15.7127965499 3.07248978747
7419 1 59.696969237 14.2794431634 2.05682678817
7420 1 60.6976146167 15.697443695 0.313975259616
7452 1 62.3978402027 14.2507459426 1.33051492145
6973 1 64.1356531703 12.835441411 2.35315859312
7451 2 64.0074456703 15.6730533011 2.38471232917
7484 1 65.1494173892 14.2557163049 0.637214711172
7482 1 65.8534527003 14.2609474591 3.3458488885
7005 1 66.8770550645 12.8189677723 1.6287352355
7038 1 69.6325372958 12.7887101018 0.903077594518
7483 2 67.0216075827 15.5192439472 1.59044734267
7515 1 68.6371110317 14.2090847007 2.65547541302
7516 1 69.6128254587 15.6563715128 0.910203083396
7069 1 73.0843957904 12.7973539141 2.94629310627
7547 1 73.077543596 15.6519888221 2.95060188351
7548 1 71.348097119 14.2267948605 1.92610147134
6910 1 72.3649576767 12.7975175239 0.18442721854
7388 1 72.360192659 15.6489330438 0.18996411545
7514 1 70.3276892617 15.6661087505 3.65500544978
7036 1 70.3442720398 12.7960091981 3.66322466333
7101 1 75.8278580066 12.7972459387 2.23437576869
7579 1 75.8220387788 15.6559314232 2.24831877786
7580 1 74.095223105 14.2233696117 1.21104679995
7610 1 76.8234965833 14.2400819126 0.507691492528
7608 1 77.5570968509 14.2297585976 3.27287222124
7131 1 78.5552925295 12.8137506582 1.5229572216
7609 1 78.5635422097 15.6690614965 1.54091277141
7630 1 80.294703008 14.2441569798 2.56648118338
7153 1 81.2608316955 12.8391225572 0.802032135699
7631 1 81.3005535478 15.6812531983 0.826503778034
7643 1 83.0093069732 14.2522064899 1.85687598935
7164 1 84.7727157789 12.871993928 2.9218949538
7629 1 82.0536552082 15.6595770772 3.60579319345
7151 1 82.0296058357 12.822115381 3.59887185621
7642 1 84.7603337366 15.6046581839 2.89954708584
7517 1 84.0111840549 15.6694519704 0.106869263616
7039 1 83.9602288102 12.8807944691 0.0862357837413
7169 1 87.35880203 12.7731526101 2.12543117046
7647 1 87.3748401388 15.7189314181 2.24369225955
7648 1 85.7369290132 14.2420920095 1.13471009636
2393 1 88.3276740796 14.3513305526 0.543585786233
2870 2 1.4184904703 18.2983762328 1.9177986906
2881 1 2.75170958708 17.0138938807 0.632957257532
3359 1 2.93834157775 19.8559635456 0.65579608563
3348 1 2.08265363418 20.176435159 3.32727032266
2879 1 2.2488699384 17.1005954788 3.63484130666
2880 1 3.87322618324 18.5400423639 2.39188625928
2897 1 6.62530591162 18.5814793616 3.04679998301
2898 1 5.57901029596 17.1669684784 1.31002789149
3376 1 5.63539670564 19.9844176634 1.32229217912
2899 1 7.36824782766 18.5814476474 0.284840991683
2924 1 8.35000507152 17.1494840439 2.02002244722
2925 1 10.095820153 18.5841953364 1.00565755776
3402 1 8.35564696287 20.0282803781 2.0284640384
2955 1 11.1032001729 17.1488098372 2.73575648548
3433 1 11.1057559524 20.0186963423 2.73674457709
2956 1 12.8406125801 18.5782410752 1.72107110448
2987 1 13.8483507347 17.1469540576 3.46045326176
2989 1 14.5781652146 17.1421501495 0.707138975515
3465 1 13.8488429718 20.010352842 3.45606311979
3467 1 14.5767720575 20.0048572926 0.700816916672
2988 1 15.5821972247 18.5748033186 2.44218270683
3019 1 18.318101415 18.5737131685 3.16060570599
3020 1 17.3111621897 17.1420588658 1.42476241467
3498 1 17.3140231068 20.0039133815 1.41863422646
3021 1 19.0449983175 18.5719333278 0.399622045072
3052 1 20.0468339364 17.1416907647 2.14310761791
3053 1 21.7831563426 18.571063241 1.12097070481
3530 1 20.0505639275 20.0027469219 2.13862825478
3083 1 22.7929356849 17.1443476044 2.86200238408
3084 1 24.524353879 18.5699701051 1.8452843294
3561 1 22.7885957043 20.0004248994 2.8619566302
3085 1 23.5183786627 17.1410358663 0.10470542312
3563 1 23.5195846317 20.0002584706 0.102903081457
3593 1 25.5236930119 19.9927710802 3.59329570351
3115 1 25.5281689416 17.1394312627 3.59127091135
3116 1 27.2595347115 18.5630690267 2.57705696864
3117 1 26.2580150091 17.1389249216 0.831239896998
3149 1 28.9945622719 17.1355833266 1.55980278352
3595 1 26.2596000264 19.997017818 0.830198045127
3627 1 28.9899474156 19.9899193364 1.5631279637
3148 1 29.9946010676 18.5578558667 3.30785580834
3150 1 30.7241427009 18.561892925 0.540197493327
3181 1 31.7293157129 17.1319531227 2.28217589286
3659 1 31.7184796686 19.9861144294 2.28346208492
3182 1 33.4540195866 18.5613113399 1.25798072434
3212 1 34.4582235816 17.12590164 3.00859729368
3213 1 36.1811521584 18.5531590261 1.98653156659
3690 1 34.4439960498 19.981219316 2.99884857705
3214 1 35.1954173623 17.1337305052 0.246394076108
3692 1 35.1775842356 19.9947211451 0.232446886787
3244 1 38.9320713186 18.5465666063 2.71633180586
3245 1 37.9257241826 17.1306251097 0.985948000721
3723 1 37.904012071 19.98167546 0.973494107245
3277 1 40.6913339118 17.1371891001 1.71723843144
3755 1 40.6795197343 19.9964152718 1.69939930954
3278 1 42.436407977 18.666249149 0.697896919816
3276 1 41.6320796274 18.5213316781 3.48774076447
3786 2 43.2628826397 19.9988350706 2.53637554068
3308 1 43.3078447217 17.1018032989 2.36717412012
7737 2 45.4855699983 17.2902827705 2.81361052871
7735 1 45.3663465361 18.8829874435 1.31814358677
7651 2 47.4480425386 17.4038374147 0.281388187469
7734 1 46.9092955426 18.9419861384 3.6098674568
7768 1 48.0532243047 17.0241613778 2.37637741851
7767 1 49.857458581 18.506606883 3.13133094969
7801 1 50.7924271845 17.1852712686 1.3863215447
8279 1 50.7008419816 19.9513290106 1.26775811918
7769 1 48.3711959449 19.255858652 1.5346835055
7800 1 52.4726549155 18.6048464615 2.43112376679
7832 1 55.2054087949 18.5807643358 1.76276961624
7833 1 53.5502843379 17.1602500786 0.742651030813
8311 1 53.4591649999 20.0240544537 0.706197970836
7831 1 54.1955016655 17.1342309074 3.48574068935
8309 1 54.1553771476 20.0059797088 3.49023888606
7864 1 56.9497969152 17.1425803581 2.77590645649
7865 1 57.9534956604 18.5607851508 1.02904036416
8342 1 56.9369398529 19.9790386853 2.77659869981
7705 1 56.2294810269 17.1475606956 0.0156851907488
8183 1 56.2105959651 19.9914706548 44.3311372132
7896 2 61.3719146839 18.546131976 2.93656057736
7897 1 59.6759452921 17.1182327997 2.04059333965
7898 1 60.7038479234 18.5419915275 0.307465345656
7930 1 62.4253717769 17.1110141183 1.31760744385
8375 1 59.67111757 19.9838390959 2.03161680146
8408 1 62.4360523016 19.9642646535 1.31198887544
7929 1 64.1317822609 18.5188680352 2.35464977617
7962 1 65.1928395492 17.0728247213 0.675080459387
8440 1 65.1296477227 19.9530235703 0.618715598663
7960 1 65.8624555648 17.0764897026 3.29548066578
8438 1 65.8430935665 19.9419213681 3.37535267505
7961 2 66.8847323045 18.653494081 1.62883281543
7993 1 68.5887417176 17.092871646 2.62753767736
7994 1 69.6049238578 18.5092586101 0.913830319157
8471 1 68.6216676836 19.9523297238 2.65460953917
8025 1 73.0758659707 18.5024865862 2.95258904639
8026 1 71.3386750503 17.0810220976 1.92388109295
8504 1 71.344515711 19.9303373129 1.92939743558
7866 1 72.3580422892 18.5022040595 0.191970584611
7992 1 70.3188772886 18.5001129911 3.65451414365
8057 1 75.8226035702 18.5023357499 2.2464680166
8058 1 74.0898844407 17.0764391621 1.21643663388
8088 1 76.8287094045 17.0815411323 0.506591777264
8536 1 74.0901756105 19.9275279878 1.21614595733
8566 1 76.8315257416 19.9230152932 0.502760392147
8086 1 77.5599794911 17.0823090422 3.27867246262
8564 1 77.5604305173 19.9258190564 3.2709283494
8087 1 78.5735017366 18.5051475608 1.53631158783
8108 1 80.3185444572 17.0910433 2.56994295456
8586 1 80.3284337988 19.9233533179 2.55837912257
8109 1 81.3303779831 18.4991864115 0.816184358113
8121 1 83.0617992572 17.082558747 1.88228282428
8599 1 83.0714223558 19.9261999414 1.85862457217
8107 1 82.0808583761 18.5040217735 3.59891225352
8120 1 84.8357503776 18.5434677381 2.94281312923
7995 2 83.994739236 18.4723369796 0.112613216155
3349 2 88.043871023 19.8676286317 0.171759604971
2871 1 88.3839697585 17.1402813672 0.43211903981
8125 1 87.4695558265 18.5386857286 2.24671513654
8126 1 85.7191507894 17.084569893 1.17913378784
8604 1 85.7507476093 19.9527811806 1.18939322293
3837 1 1.54683931487 22.0845306782 1.59115432813
3835 2 2.4434978017 22.8944776933 3.43142219917
3836 1 3.66002061707 24.1192257205 1.91433988889
3358 1 3.89020400279 21.4604284713 2.18824814755
3375 1 6.60609518266 21.495841673 3.0534997973
3853 1 6.51953739521 24.3876288465 3.0540727104
3854 1 5.68374828407 22.8976976597 1.32083410929
3855 1 7.34299035068 24.3381271975 0.289677166721
3377 1 7.38920737925 21.4497426839 0.283092261504
3403 1 10.0973661595 21.4564267733 1.00730002282
3880 1 8.34531556498 22.9140310422 2.029833094
3881 1 10.1126159803 24.3090607327 1.00162747014
3911 1 11.1140502825 22.8844317007 2.73762591538
3434 1 12.8443702838 21.4419298721 1.72015819453
3912 1 12.8500822312 24.3047611686 1.72035370824
3943 1 13.8522928372 22.8730687437 3.45663295354
3945 1 14.5795728974 22.8674006873 0.699337382566
3466 1 15.5830873397 21.4376356212 2.43756187035
3497 1 18.3203605168 21.4366932184 3.15636589745
3944 1 15.5824652665 24.3013414269 2.43737959387
3975 1 18.3176023773 24.2998972792 3.15528431973
3976 1 17.3138247791 22.8668503555 1.41652378823
3499 1 19.0458568302 21.4334784186 0.397122931856
3531 1 21.7829360925 21.4311146189 1.11988779056
3977 1 19.0427438637 24.2970229669 0.395188812492
4008 1 20.0495850816 22.8654814686 2.13664911791
4009 1 21.7801660782 24.2930160276 1.11920532448
3562 1 24.5208010494 21.4254366537 1.84749730623
4039 1 22.785541662 22.859867029 2.86249821702
4040 1 24.518280596 24.2833220727 1.84942320928
4041 1 23.5172268395 22.8577479009 0.104720001242
4071 1 25.5176883076 22.8494987033 3.59574461058
3594 1 27.2508057268 21.413627957 2.58412699992
4072 1 27.2436722957 24.2727475638 2.58953508284
4073 1 26.2567696405 22.8503760518 0.837322981554
4105 1 28.9606203323 22.8237904345 1.5891529037
3626 1 29.9839785297 21.4050128588 3.3158022609
3628 1 30.7116617338 21.4248414807 0.555380749989