ITEM: TIMESTEP
26000
ITEM: NUMBER OF ATOMS
9560
ITEM: BOX BOUNDS pp pp pp
0.0 88.6430375159
0.0 28.55
0.0 44.3215187579
ITEM: ATOMS id type x y z
2 1 1.3840649012 1.3815556053 1.64350832092
491 1 3.11068870186 2.84357459933 0.676798980073
11 1 2.42671053097 0.15232885246 3.51291345803
489 1 2.41541855131 2.96411502991 3.26663505614
13 1 3.10254666607 0.0910111420877 0.733984418601
481 1 0.116792888389 2.83067519186 0.070444330278
1 1 0.00711107330846 2.59807231263 2.97716099007
12 1 4.12464417654 1.51627556899 2.40750821669
29 1 6.76092034554 1.4912091266 3.11884976812
508 2 5.8353485787 2.88514324107 1.19831914721
30 1 5.76442927191 0.0640865424862 1.38527868526
31 1 7.50202048454 1.44236699242 0.347787795585
57 1 10.1909413512 1.4550091653 1.12418737237
534 1 8.48792361231 2.90101840345 2.11153820723
56 1 8.4303214712 0.0296551558887 2.13153939193
565 1 11.1906468045 2.89111417555 2.86254282503
88 1 12.8955932111 1.45306451567 1.83453535553
597 1 13.8876679762 2.87858435842 3.56860781933
599 1 14.6140038307 2.87862786475 0.808514506768
567 1 11.9094003272 2.88558649095 0.101494245987
121 1 14.6316095434 0.02981528489 0.805725117104
89 1 11.8977118193 0.0122984731739 0.098941307725
87 1 11.166118522 0.0120247202993 2.86218194591
119 1 13.8921945729 0.00866567999225 3.58032976935
120 1 15.6219618759 1.4466212865 2.54642234307
151 1 18.3519704676 1.42999212606 3.2784836125
630 1 17.3541191759 2.85940315958 1.52262419712
152 1 17.3432135434 0.0239873718336 1.5215221074
153 1 19.0948873597 1.41806107077 0.536626687838
185 1 21.8216642795 1.42010805181 1.24796833059
662 1 20.091023797 2.85009955033 2.2667287758
216 1 24.5601669421 1.40909113668 1.97532466295
693 1 22.8261269951 2.84222329929 2.9935655015
695 1 23.5596424924 2.84184729242 0.22975653057
248 1 27.2991576202 1.39711481292 2.69926241798
727 1 26.2964672202 2.83101298302 0.956052519925
759 1 29.0354279984 2.81508479218 1.67838717573
280 1 30.0527433222 1.37390265746 3.40601006923
282 1 30.7639957945 1.36750369763 0.664418205247
791 1 31.772550486 2.8023776106 2.38587204162
314 1 33.5178455199 1.37008291424 1.37736618228
345 1 36.2960309183 1.40022402682 2.07983274789
822 1 34.5143516378 2.79972004423 3.09713114362
824 1 35.2625125203 2.81860288221 0.372773951126
376 1 39.0415839437 1.37935759164 2.64162309016
855 1 37.9333277454 3.05279544528 1.08928712844
378 2 39.5911703663 1.92497891194 0.0221692462302
887 1 40.7276828335 3.07177157406 1.78046631219
410 2 42.6628444316 1.9250037806 0.86909497803
918 1 43.5901027424 2.96622584478 2.60003469418
408 1 41.7272789068 1.44131185301 3.41273097438
440 1 43.480930137 0.0352363607204 2.51979731835
4868 1 44.1029921208 0.0244577793096 0.00645311217436
4866 1 45.8812696361 1.3049902155 1.47776614109
5824 2 45.8049843442 3.04021217851 3.23467708656
5344 2 48.4707912891 1.99306291661 1.75350023105
5411 1 50.7224381383 2.83447731857 1.41944441226
4933 1 50.5012040771 0.137689095847 1.17423203856
4899 1 49.8011569306 1.00139531922 3.40811666774
4932 1 52.3524303383 1.38551963683 2.43176989972
4964 1 55.1734961941 1.40261800515 1.68640865318
5443 1 53.4700507113 2.84419632095 0.695304958294
5441 1 54.1501713411 2.83351704325 3.41329132161
4965 1 53.4519779472 0.0491280088981 0.574316816082
4997 1 57.9377114146 1.40198063895 0.947760652351
5474 1 56.9286362345 2.82399705493 2.69058007523
4995 1 58.6392811691 1.40822528266 3.68366735357
5028 1 61.4005529493 1.37379876724 2.99611565554
5030 1 60.6656877159 1.38894407295 0.218513645286
5507 1 59.6799693414 2.80303520362 1.97719043357
5540 1 62.3940903082 2.8019736317 1.24179189447
5061 1 64.1468482238 1.40753566699 2.2204370839
5572 1 65.1364711599 2.82411044626 0.485998331836
5570 1 65.8695580222 2.82038087973 3.24770067764
5093 1 66.8755566278 1.39718519566 1.50598305045
5126 1 69.6003739211 1.409714509 0.776948314011
5603 1 68.6077267229 2.82333772009 2.51918822167
5157 1 73.0770752464 1.42994835644 2.80727623343
5636 1 71.336169765 2.84009912951 1.79928302829
5124 1 70.3352117435 1.40993946826 3.53823887249
4998 1 72.3346798916 1.42150291152 0.051331022044
5189 1 75.7690623165 1.4353669852 2.08812870412
5668 1 74.0510103884 2.87076904937 1.06934503882
5698 1 76.7652517653 2.88150852048 0.365723104122
5696 1 77.4727033029 2.8697455421 3.10929894333
5219 1 78.4832281461 1.42029125965 1.39041497517
5718 1 80.216667346 2.85238209885 2.41397816086
5241 1 81.1876943842 1.40785818393 0.675681886801
5731 1 82.9234661815 2.84975087857 1.669789122
5239 1 81.9303315786 1.42545977683 3.45396579698
5252 1 84.5759164938 1.38792012376 2.71513673146
5736 1 85.604472482 2.71673423625 0.955234141953
5258 1 87.3577980052 1.13870923285 1.48450446582
5734 1 86.2622586028 2.79584186284 3.64651949322
480 2 1.37898641331 4.20698221564 1.52692275547
958 1 1.23759744867 7.10249211759 1.85516579427
969 1 3.05360335523 5.76956211782 0.775220620784
967 1 2.51524177634 5.61889356535 3.45372425992
479 1 0.30517562253 5.19742541347 3.18680450105
959 1 0.0289459417138 5.71625527422 0.156358283482
490 1 4.18330438826 4.27763485632 2.37672737815
968 1 4.0717242095 7.13704182464 2.48856779926
507 1 6.78013332831 4.31316204953 3.13584818252
985 1 6.74180682236 7.13481076624 3.20012012773
986 1 5.79818930902 5.73183794895 1.41379073426
987 1 7.50539882845 7.15608971166 0.425866242339
509 1 7.52286791058 4.32602521261 0.369574451499
535 1 10.2269635874 4.32803430869 1.13635229383
1012 1 8.49511340503 5.72762620709 2.15418689355
1013 1 10.2221088369 7.14070290889 1.15644220485
1043 2 11.1602202536 5.73525493705 3.00894148
566 1 12.8867847701 4.31812541766 1.82978784625
1044 1 12.8923140668 7.12447571117 1.84114570673
1075 1 13.8874717769 5.71649918454 3.57265618055
1077 1 14.6221929615 5.69821486305 0.80263812409
598 1 15.6184129708 4.28554060784 2.54287065986
629 1 18.3542392794 4.27781141853 3.27769365327
1076 1 15.6180824423 7.12740407103 2.55270571186
1107 1 18.3506939254 7.13089043325 3.27795312245
1108 1 17.3490631069 5.689296823 1.51970760739
631 1 19.0983568439 4.28850628671 0.534925877042
663 1 21.8237124538 4.27285753212 1.24678672875
1109 1 19.0819264394 7.12449413713 0.515559639673
1140 1 20.0895292599 5.70372258739 2.26509814034
1141 1 21.8222159412 7.12950424689 1.2467531654
694 1 24.5612715869 4.26611691797 1.97430690677
1171 1 22.8251186479 5.69954717907 2.99287497406
1172 1 24.5588360567 7.12483897931 1.97471758449
1173 1 23.5588324753 5.69691351059 0.228366621766
726 1 27.3003507828 4.25589962391 2.69801389099
1204 1 27.2954577001 7.12073334512 2.7007362525
1205 1 26.2954769914 5.69038253125 0.956348641024
1237 1 29.0298967794 5.68676901499 1.68287397565
758 1 30.0388201802 4.24715435411 3.41448741015
760 1 30.7605534738 4.24850682386 0.664229424456
1236 1 30.0347577544 7.12325645748 3.42418303429
1238 1 30.7561407285 7.12330415617 0.67046061465
1269 1 31.7624558203 5.68777077566 2.40154468387
792 1 33.4980203684 4.24897156879 1.37943670811
823 1 36.1982041887 4.2956223358 2.1153340987
1270 1 33.4786778733 7.13629553978 1.38978252357
1300 1 34.4731176482 5.70758073077 3.11835474016
1301 1 36.2148722923 7.14391240354 2.10292874342
1302 1 35.2092254447 5.70807136194 0.365258237523
854 1 38.957365745 4.32191044651 2.85133635794
1332 1 38.9738556124 7.15199856946 2.81816880795
1333 1 37.9556185913 5.72780373013 1.07263557166
1334 1 39.7246977551 7.15610159386 0.0543432164041
1365 1 40.6923685448 5.69882866372 1.819373449
886 1 41.7159487475 4.28446535046 3.55240302529
1396 1 42.4937183093 4.3945369763 0.728415331125
1364 1 41.7269992659 7.21708647407 3.49098242479
1366 1 42.3167720261 7.07217690881 0.797247320819
6217 1 43.4555374639 5.65570485734 2.50765998044
5346 2 45.8728194073 5.75092435473 1.72459162639
6302 1 46.1016139103 7.79050872075 1.04492537267
5822 1 48.0620055027 5.99246531014 2.08490379435
5377 2 49.8364030937 4.5819440268 2.9156857518
5739 1 49.1158730001 4.44108124093 0.4179462182
5855 1 49.897418063 7.24000839232 3.02760910472
5889 1 50.8621050478 5.82241893651 1.29853217065
5857 1 49.0538047319 7.30816597569 0.348505735016
5410 1 52.4557360684 4.2828228796 2.40080953773
5442 1 55.2195369004 4.25602016028 1.67992747289
5888 1 52.6011266985 7.17469648393 2.37983218014
5920 1 55.2685327909 7.1074890439 1.66191795708
5921 1 53.5158768275 5.68951574664 0.646269582649
5919 1 54.2325306811 5.68523162765 3.41641033068
5475 1 57.9608817343 4.24241285969 0.949308144489
5952 1 56.9657885978 5.66822207893 2.6890858403
5953 1 57.9681810742 7.10239818477 0.935088050436
5506 1 61.401533822 4.2277010482 2.98336126096
5508 1 60.6712151561 4.23722617624 0.21354702053
5984 1 61.4068991097 7.10104810169 2.97081477614
5985 1 59.6833557731 5.66635323584 1.96315924135
5986 1 60.6768593827 7.10135211265 0.206126954565
6018 1 62.3997314978 5.66728666855 1.22620568277
5539 1 64.1302159683 4.23916685265 2.23750528713
6017 1 64.1309042218 7.10141892928 2.23174125859
6050 1 65.1317129814 5.67208230362 0.48141142819
6048 1 65.8602156736 5.67290984813 3.24899020665
5571 1 66.8665462351 4.25088526307 1.49987382481
5604 1 69.5957655545 4.2549619355 0.772698729013
6049 1 66.8574665305 7.10190834242 1.49813133782
6081 1 68.5924984895 5.67814986369 2.51988334353
6082 1 69.5864098625 7.10440877264 0.766270723228
5635 1 73.0639850552 4.27226275588 2.81161205234
6113 1 73.0580719613 7.08519702318 2.80906544069
6114 1 71.3243234411 5.68212746493 1.7896175112
5602 1 70.3363018043 4.25667407224 3.53549107377
6080 1 70.3269316492 7.0978488819 3.53440566365
5476 1 72.2882026939 4.24068815477 0.0310228165885
5954 1 72.2826583646 7.1252567309 0.0215972855386
6146 2 73.8668888292 5.68744708607 0.961336802192
5667 1 75.7388907726 4.32591141919 2.07399897901
6145 1 75.7392828536 7.03872812437 2.06551136612
6176 2 76.9108607367 5.68806480668 0.307457925581
6174 1 77.4853067661 5.68647825787 3.12237929614
5697 1 78.5095662204 4.27227049913 1.39214838956
6175 1 78.4986347221 7.09161423391 1.407160436
6196 1 80.2366048406 5.69745401315 2.40827180932
5719 1 81.2211224929 4.28217771887 0.660392135836
6197 1 81.2715434323 7.10110220858 0.668779877801
5730 1 84.6494340283 4.26873951939 2.67223503493
6208 1 84.7240214015 7.17649680292 2.69126514803
6209 1 82.9852250221 5.70211100467 1.65976028321
6195 1 81.9798044388 7.12591614638 3.41341080893
5717 1 81.9621419153 4.28886198373 3.4324628329
5735 1 87.3285111225 4.16179277824 1.8320604222
6213 1 87.4650620761 7.11117111406 1.95183634456
6214 1 85.6945684805 5.72850482319 0.959623884344
6212 1 86.3539886036 5.70662625465 3.66932062493
1436 1 2.99481375765 8.60961827082 0.826321383823
1925 1 3.12022612459 11.3006036734 0.763531069475
1915 1 1.28116252175 9.94352840556 1.91827192674
1923 1 2.30130652114 11.3251322162 3.64358749205
1445 1 2.21677774624 8.38401382743 3.52022374365
1446 1 3.99723041378 9.92757557004 2.57974148981
1463 1 6.70831375521 10.0007031552 3.23128941454
1464 1 5.77043965267 8.57979719901 1.48206192555
1942 1 5.72002461251 11.3982952917 1.49558237058
1465 1 7.48159622801 10.0142988313 0.447714950691
1490 1 8.47559258312 8.57042949528 2.17927640119
1491 1 10.2005146202 9.99775498027 1.15809123862
1968 1 8.45101222644 11.4275390558 2.18182164363
1999 1 11.1787680069 11.4419085334 2.88879009291
1521 1 11.1946562501 8.56844069624 2.89119839434
1522 1 12.897855787 9.99524374072 1.84878846746
1553 1 13.8985242969 8.5689141945 3.57480656624
1555 1 14.6166175002 8.55438902162 0.825042637367
2031 1 13.8928788821 11.4272996093 3.56623401956
2033 1 14.6222721414 11.4328937271 0.825637461119
1523 1 11.9173117723 8.56103347444 0.113757743718
2001 1 11.902951297 11.4381356475 0.114364802015
1554 1 15.6247422256 10.0001643745 2.55984830171
1585 1 18.3530051413 9.99396514765 3.28205754844
1586 1 17.34998566 8.55842339983 1.53681911976
2064 1 17.3514377644 11.427841336 1.54151368727
1587 1 19.0815318239 9.98958849887 0.520366252942
1618 1 20.085026007 8.55898968951 2.26384286226
1619 1 21.8183454131 9.98628882244 1.24702401188
2096 1 20.085848444 11.4201557081 2.26588502365
1649 1 22.8227054143 8.55817436325 2.99378869102
1650 1 24.55572369 9.9853103507 1.97727505322
2127 1 22.820961493 11.4171100289 2.99554563558
2129 1 23.5507951328 11.4132964883 0.230898748289
1651 1 23.5546683431 8.55471004366 0.228946493214
1682 1 27.2912844889 9.98403560777 2.70609986454
1683 1 26.2907099733 8.55221450683 0.958715256808
1715 1 29.0260417832 8.55378551088 1.68907157788
2161 1 26.2880266278 11.4138295816 0.963601101724
2193 1 29.0243940667 11.4109499592 1.69492201023
1714 1 30.0314536571 9.9814885699 3.43208155874
1716 1 30.7549036374 9.98406429925 0.677882806406
1747 1 31.7506309436 8.55144074573 2.40395078017
2225 1 31.7512289598 11.4139422544 2.41209881517
1748 1 33.4815178681 9.98580392126 1.39429608835
1778 1 34.4833131213 8.55471778682 3.12492841583
1779 1 36.2088788397 9.98686559541 2.11768173176
2256 1 34.4807410817 11.4110461478 3.13942509612
2258 1 35.2157407623 11.4114254683 0.378080923777
1780 1 35.2124028162 8.56316749676 0.368722274897
1810 1 38.9575987103 10.0003769477 2.83900110217
1811 1 37.965535892 8.56965930502 1.08338754473
2289 1 37.9566327394 11.4075930681 1.10206364596
1812 1 39.7153935374 10.0049638734 0.064111767196
1843 1 40.7247716237 8.62827688852 1.81075874007
2321 1 40.7380501173 11.3807288538 1.84298527315
1874 1 43.6067462416 8.64416249375 2.47718196908
1844 1 42.5488030713 10.0560426836 0.747712985243
2352 1 43.4884019189 11.3786514875 2.51002595984
1842 1 41.7707411959 9.97460458499 3.59758329696
6695 1 45.4252423825 10.0828281429 0.996739735441
6215 2 46.7536340334 12.2283264257 3.4729778653
6334 1 48.0032445236 8.80710271232 2.14606109938
6812 1 48.0030098989 11.3958396114 1.87308767849
6333 1 49.9087713734 10.1513830514 3.00940113699
6335 1 49.314264154 9.98214360759 0.387194934439
6367 1 50.9086798069 8.5940087222 1.36459885874
6845 1 51.0208893585 11.4810460177 1.37365376833
6366 1 52.6462842033 10.0146956186 2.36934184324
6398 1 55.3010552109 10.0053444399 1.64510397272
6399 1 53.6014300769 8.56440511303 0.62543532206
6877 1 53.6051789331 11.468733195 0.623397999923
6875 1 54.321999901 11.4592536693 3.38476754612
6397 1 54.3195709353 8.57640018995 3.39742635428
6430 1 56.9903092971 8.54702321499 2.67511245639
6431 1 57.9830913056 9.98405784176 0.924048785172
6908 1 57.005391932 11.4362516044 2.66352781771
6429 1 58.7076695763 9.98208625286 3.69046544415
6462 1 61.414884343 9.97409359893 2.96031906625
6463 1 59.6908264085 8.53865985001 1.94980411126
6464 1 60.6846517559 9.97514594457 0.197047070722
6496 1 62.4044392143 8.53469005877 1.21663280021
6941 1 59.7017522506 11.4195908191 1.93847590728
6974 1 62.4104970743 11.4114850875 1.20759723448
6495 1 64.1311383681 9.96878546758 2.22643837131
6528 1 65.1282394753 8.53118940137 0.479947182156
7006 1 65.1233374745 11.4051862958 0.477642972372
6526 1 65.8572737992 8.5347133844 3.2456723377
7004 1 65.8545352592 11.4007166791 3.24152997853
6527 1 66.8539559728 9.96519897607 1.49542343508
6559 1 68.5873883272 8.53167304341 2.51438657537
6560 1 69.586044584 9.9610045331 0.761412989538
7037 1 68.5831151505 11.3932650334 2.50838491772
6591 1 73.055459914 9.93163856341 2.79402882249
6592 1 71.3218872689 8.52210862001 1.78897049581
7070 1 71.3202075201 11.3792005899 1.77503897839
6558 1 70.3172122453 9.95612003466 3.52771787022
6432 1 72.3219780264 9.94484983712 0.0288507081075
6623 1 75.7645613345 9.91066079071 2.06997207452
6624 1 74.0477914907 8.48413179751 1.05565003497
6654 1 76.7769241107 8.47923249185 0.352361902432
7102 1 74.0503309471 11.3621487999 1.04462529493
7132 1 76.7836360599 11.3385994171 0.323554590571
7130 1 77.4909751048 11.3506045145 3.10122299657
6652 1 77.4674711346 8.48638782139 3.10119759294
6653 1 78.4807775138 9.93020411709 1.3846863329
6674 1 80.2373215701 8.51805591126 2.39911661375
7152 1 80.227965427 11.3351151286 2.3851413946
6675 1 81.2677013808 9.93642420172 0.655403352576
6686 1 84.7970900612 9.98675658057 2.71261762278
6687 1 83.0223308016 8.54984175628 1.65077338162
7165 1 83.0054632514 11.3144525406 1.63885527518
6673 1 81.9847225924 9.93556284182 3.40500030199
1437 1 88.6123174459 8.61422437449 0.279330434244
6691 1 87.4227784516 10.0026640937 2.07508106053
6692 1 85.7789688207 8.5386128193 0.918326556568
7170 2 85.6717918495 11.3166585958 0.812572024972
1914 2 1.41678977053 12.4760205801 1.5945404513
2392 2 1.41849359934 15.7496058198 1.54738403599
2401 1 2.16318880329 14.1615518897 3.3518350993
2403 1 3.01437222618 14.1099753794 0.760338943404
2393 1 0.0728539858937 14.1924203953 0.354804513415
2402 1 3.90144750036 15.7041839105 2.38920544614
1924 1 3.98170419709 12.7986468623 2.50736087842
1941 1 6.69810247105 12.8416579951 3.19502423136
2419 1 6.6960324072 15.7518476649 3.14632286212
2420 1 5.68561874764 14.2676117608 1.46564753242
2421 1 7.3913441733 15.7035337662 0.423946437056
1943 1 7.43805536254 12.8508225527 0.436711344874
1969 1 10.1678866296 12.8695135459 1.14812618324
2446 1 8.41847401916 14.2919852388 2.15798943883
2447 1 10.1500146529 15.7131483189 1.15122403762
2477 1 11.16005948 14.3004162628 2.87976536316
2000 1 12.8934135418 12.8700563271 1.84911424225
2478 1 12.8750871396 15.7318081105 1.8455774624
2509 1 13.8837229955 14.3144735666 3.5694079388
2511 1 14.6157737335 14.2968503537 0.826151296617
2479 1 11.8828982376 14.2989850868 0.113095637342
2032 1 15.6238258328 12.865394944 2.56087482674
2063 1 18.3554605144 12.8569499867 3.28350977084
2510 1 15.6172859627 15.7227966181 2.56630076244
2541 1 18.3519292269 15.7136125931 3.28987255857
2542 1 17.3496822689 14.2880053402 1.54410094812
2065 1 19.0822014593 12.8524773889 0.521494977603
2097 1 21.8174349101 12.8461610464 1.24877087478
2543 1 19.0804502743 15.7114189733 0.523764019324
2574 1 20.0857010716 14.2806480368 2.26807278784
2575 1 21.8171380913 15.7044274082 1.25003518084
2128 1 24.554550415 12.8449327317 1.98092844121
2605 1 22.8201396191 14.2754780157 2.99776006675
2606 1 24.5546469979 15.6996290458 1.98152106717
2607 1 23.5497531638 14.2716012369 0.232249579723
2160 1 27.2948368284 12.8463059638 2.71542634915
2638 1 27.2987276565 15.6993959337 2.71700962886
2639 1 26.2880330831 14.2700169414 0.965886154791
2671 1 29.0245087599 14.2664401007 1.69339301927
2192 1 30.0323599062 12.8382174717 3.44048029296
2194 1 30.7550285341 12.8361136465 0.677326972405
2670 1 30.0205632601 15.6803044137 3.42193160257
2672 1 30.7584902095 15.6906283973 0.674419797175
2703 1 31.7576937471 14.2623539505 2.41970613804
2226 1 33.4851245514 12.8304756366 1.40398441868
2257 1 36.2120351384 12.8257498466 2.13172979259
2704 1 33.4929835194 15.6870588335 1.40260790095
2734 1 34.479039079 14.2535454354 3.15019347873
2735 1 36.2228146297 15.6748919871 2.13994479357
2736 1 35.2271828625 14.2606582427 0.381983428348
2288 1 38.9629960519 12.8217722065 2.8611509097
2766 1 38.9146831542 15.6635067126 2.88469525627
2767 1 37.95407938 14.2376149132 1.11487100945
2768 1 39.6791127209 15.6544833473 0.10688933075
2290 1 39.7186209415 12.8004846322 0.103264982612
2799 1 40.6664815518 14.2831094553 1.87486942451
2322 1 42.4438806659 12.9029104029 1.06945128244
2800 1 42.2934135801 15.8033591765 0.940341970424
2830 1 43.6353093065 14.4299785449 2.66305330253
2320 1 41.7414792899 12.9028708954 3.57278441338
2798 1 41.681648613 15.6753902467 3.63695158772
2865 1 44.0509825803 14.5802355403 0.269083099986
7259 1 45.3752680381 12.7405641294 1.64006725216
6780 1 46.1638003478 14.9879812269 1.03551954439
7290 1 48.0639317009 14.1528568996 2.18719245508
6811 1 49.9844099988 12.9506576874 3.02565069869
6813 1 49.3930967971 12.9476793358 0.483624564188
7289 1 49.8703960124 15.6041885322 3.13482964147
7323 1 50.9452635786 14.4436544502 1.29318707305
7291 1 48.6791351339 15.7626551587 0.324341398955
6844 1 52.6402426697 12.9433389757 2.35250764463
6876 1 55.2955604446 12.8962460138 1.63639835097
7322 2 52.6366728902 15.7565839305 2.48185141544
7355 1 53.5972097239 14.3414815892 0.616014513208
7353 1 54.3426637988 14.3120321287 3.39539273946
7354 1 55.2741158371 15.753997112 1.63830353213
6909 1 57.9896881155 12.8698962281 0.915368207921
7386 1 57.0037061539 14.3129813568 2.6611152122
7387 1 57.984056941 15.7383006623 0.911510488582
6907 1 58.7186178863 12.8631585291 3.68226821408
7385 1 58.7197712582 15.736825457 3.68023296403
6940 1 61.4242434496 12.8523088781 2.95000105348
6942 1 60.6961149299 12.8575103297 0.189060438644
7418 1 61.4299414535 15.7213873246 2.94399525471
7419 1 59.7085221803 14.2973542972 1.9310931823
7420 1 60.7026712667 15.7208452641 0.183703214714
7452 1 62.4129289901 14.2782159792 1.21149446369
6973 1 64.1318640378 12.8461280849 2.21802393829
7451 1 64.1370735126 15.715269109 2.22359960159
7484 1 65.129306649 14.2714690826 0.484118812757
7482 1 65.8541371972 14.2727204295 3.23653222456
7005 1 66.8472085464 12.832383258 1.49366853107
7038 1 69.5860080083 12.8192117079 0.757422851307
7483 1 66.8438871265 15.6950541289 1.49420076141
7515 1 68.5786761239 14.2570396747 2.50615287756
7516 1 69.5809734748 15.6776563466 0.760828760494
7069 1 73.0480079917 12.7996862665 2.79326693665
7547 1 73.0504224449 15.6548309201 2.79745958033
7548 1 71.3169252288 14.2370029621 1.77375047793
7514 1 70.3107506302 15.6745702323 3.52264838009
7036 1 70.3138146826 12.8148818384 3.52246575095
7388 1 72.3244874261 15.6502996083 0.0243576749408
6910 1 72.3231386347 12.8031493941 0.0194512298833
7101 1 75.7784034364 12.7834727569 2.06822586001
7579 1 75.7866402801 15.6404026036 2.07745111219
7580 1 74.053417156 14.2187655656 1.04555897504
7610 1 76.7878434435 14.2057448807 0.327196320455
7608 1 77.5101887865 14.2050373735 3.10026567569
7131 1 78.5090576479 12.7685958039 1.35420114575
7609 1 78.5257501501 15.6294906997 1.36177109759
7630 1 80.2502220127 14.1818051045 2.37942884219
7153 1 81.2483359331 12.7409081118 0.639541467493
7631 1 81.2898118448 15.6115162963 0.651907554895
7643 1 83.0053521123 14.1079833462 1.67404940205
7164 1 84.7763649852 12.6333551895 2.71865541377
7629 1 81.9843394369 15.5958498028 3.39211286187
7151 1 81.9686436357 12.7140675324 3.3994734195
7642 1 84.6962171381 15.4990543017 2.70100664217
7169 1 87.5541243974 12.6441143525 1.98890003153
7647 1 87.5672242212 15.4726578794 2.13468814376
7648 1 85.8209824365 14.0670075343 1.00532975275
2870 1 1.43327566956 18.4958577185 1.614631648
3359 1 3.14489290566 20.0855965344 0.790402526422
3348 1 2.07025840277 20.0153447063 3.46909138624
2881 1 2.94959751396 17.1293192881 0.507260412694
2879 1 2.16622635873 17.0294753612 3.46339055094
2880 1 3.88249917997 18.5184036541 2.45928243271
2897 1 6.6211009704 18.5661880152 3.14948307695
2898 1 5.65811544169 17.1519440878 1.40294457746
3376 1 5.64704848833 20.0167055196 1.41007374318
2899 1 7.40447874843 18.5864334504 0.380607711227
2924 1 8.40306069646 17.1686473879 2.11866398935
2925 1 10.1064269205 18.5874996556 1.09677179784
3402 1 8.36844145306 20.0049307164 2.12098047418
3433 1 11.1140367496 19.9978863557 2.8427623154
2955 1 11.1301128403 17.1609432077 2.8532450273
2956 1 12.856682093 18.5794342534 1.83771862494
2987 1 13.8787913834 17.1515065327 3.59063965644
2989 1 14.6053738745 17.1529651201 0.827684061277
3465 1 13.8682306871 20.0008329557 3.58647622722
3467 1 14.5997616716 20.001622773 0.827733625381
2957 1 11.8441201718 17.1585449141 0.107372951893
3435 1 11.8376193077 20.0076029891 0.104925426133
2988 1 15.6099661468 18.5742526711 2.57078066678
3019 1 18.3486955005 18.5654589999 3.29376844187
3020 1 17.3468612261 17.1445111752 1.5468722279
3498 1 17.3435624204 19.9956358177 1.5479419521
3021 1 19.0781659981 18.5661559488 0.525054627354
3052 1 20.0834138754 17.1359304791 2.27054082921
3053 1 21.8169104944 18.558592922 1.25101983517
3530 1 20.0822648491 19.9876108372 2.27111794328
3083 1 22.8200346292 17.1292620546 2.99866295051
3084 1 24.5568261189 18.5516787619 1.9822849866
3561 1 22.8215196802 19.9797216251 2.99911160578
3085 1 23.5509911745 17.1284773748 0.232996758503
3563 1 23.5525963974 19.9817227521 0.234026031676
3116 1 27.3012578758 18.5415678482 2.71777429979
3117 1 26.2894565551 17.1227694858 0.965291468121
3149 1 29.0276893469 17.1177705454 1.69105649797
3595 1 26.2938423542 19.9741464938 0.967203211051
3627 1 29.0292089641 19.9655080235 1.69349245532
3148 1 30.024119085 18.5504016603 3.42395002349
3150 1 30.7613704313 18.5388390638 0.67413895144
3181 1 31.7610773365 17.1133102256 2.41851545748
3659 1 31.7655421664 19.957870185 2.42211930581
3182 1 33.4983410711 18.5311596705 1.40730114915
3212 1 34.4880195944 17.1046615344 3.1569126831
3213 1 36.226525322 18.5265184302 2.15392901405
3690 1 34.4919368248 19.9545584714 3.16647685375
3214 1 35.2390843898 17.1075063019 0.387315498435
3692 1 35.2393425208 19.9483763361 0.392695713528
3244 1 38.910746328 18.5313999387 2.90997195985
3245 1 37.9593140432 17.1008442674 1.12514636314
3723 1 37.9661987276 19.9310676398 1.13174647095
3246 1 39.6986666676 18.5071679098 0.0970978691402
3277 1 40.5848573414 17.132097122 1.9262677459
3755 1 40.6882131805 19.9001709422 1.89468961241
3278 2 42.2167868052 18.3901164966 0.686077989146
3786 2 43.2342269813 20.014698567 3.02776154468
3308 1 43.0383430877 17.3928467552 2.63137155394
7737 1 45.0244608234 16.4789491698 2.31108609413
7735 1 44.6238381653 18.893509192 1.30764496291
7734 1 46.8643870509 18.6660782461 2.88429615391
7736 2 46.7449217973 20.0075356516 0.633444237531
7651 1 46.5266375227 17.465586767 0.686203826435
7768 2 48.4419628226 16.9965085426 2.14887190115
7767 1 49.769764836 18.5842867976 3.03406371684
7801 1 50.7839761982 17.0654543875 1.27769804399
8279 1 50.7629968596 19.9755374066 1.29539490146
7769 1 48.9099295956 18.7252078355 0.603032256759
7800 1 52.4818296135 18.5309278639 2.32213125557
7832 1 55.2356515863 18.5874103003 1.62319754391
7833 1 53.5352582897 17.1597563167 0.60850107438
8311 1 53.4691983854 19.985898945 0.608477441339
7831 1 54.294126474 17.1859210374 3.38104918621
8309 1 54.2136758974 19.9913597626 3.36582973281
7864 1 56.9903678517 17.174768312 2.65807746487
7865 1 57.9683270654 18.5886456608 0.905472658664
8342 1 56.9618463971 20.0180086714 2.65002399014
7863 1 58.7199553703 18.6050865747 3.67928495551
7896 1 61.4227698691 18.5927938924 2.94684494595
7897 1 59.7075822164 17.1607016752 1.92909107289
7898 1 60.6934649102 18.5721584815 0.180348921857
7930 1 62.4150736198 17.1528403424 1.21227224558
8375 1 59.6771234509 19.9962036323 1.91585494536
8408 1 62.4230788528 19.9791177602 1.18697031042
7929 1 64.1282205666 18.5724624569 2.23025878697
7962 1 65.1262275549 17.1320507059 0.487713987747
8440 1 65.1231336414 19.9810933276 0.485400975081
7960 1 65.849359404 17.1293900897 3.24257759284
8438 1 65.8451423993 19.9944699839 3.25501413353
7961 2 66.8639933344 18.5549302916 1.5083629078
7993 1 68.5863774439 17.1029720981 2.51239616769
7994 1 69.5832041611 18.5229007055 0.768278088541
8471 1 68.5957036131 19.966244314 2.519310954
8025 1 73.0558688851 18.5058519702 2.80192263333
8026 1 71.3172659333 17.0892554923 1.77724340583
8504 1 71.3214850991 19.9400032278 1.78614693743
7992 1 70.3096754785 18.5217687746 3.52320268249
7866 1 72.3285023952 18.5055613361 0.0387199225309
8057 1 75.7932208963 18.4969516179 2.08662157739
8058 1 74.0582611055 17.0716922412 1.05551482167
8088 1 76.7938608361 17.0625494768 0.339588748527
8536 1 74.060939905 19.9321552409 1.06822292887
8566 1 76.7973753598 19.9228140551 0.3535447263
8086 1 77.5203962979 17.0645741556 3.10944035665
8564 1 77.5226955791 19.9271410022 3.12332098391
8087 1 78.5326689089 18.4874189852 1.37217764493
8108 1 80.2662937796 17.0487566972 2.38464491172
8586 1 80.2769650503 19.9004448202 2.39468877109
8109 1 81.308196164 18.4626420955 0.651261378718
8121 1 83.0527605743 17.0275687731 1.66679319723
8599 1 83.0477437588 19.8698748289 1.66315832438
8107 1 82.0158591807 18.448444205 3.40637606295
8120 1 84.8307081896 18.4519909896 2.68697746231
2871 1 88.6227602044 16.8448311305 0.0286719110204
3349 2 88.306087647 19.3366382602 0.580961983078
8125 1 87.4248094175 18.1765553877 2.25867000814
8126 1 85.8031457646 16.8270055771 1.03116944789
8604 1 85.9023729026 19.9783090086 1.0636641169
3837 1 1.08680754436 21.3758267668 1.3970133689
3835 1 2.19468223805 23.1049954592 3.19586560306
3882 1 3.03794036049 22.8836476322 0.718819154807
3836 1 4.12854120784 24.3487910525 2.38378490894
3358 1 3.86762415545 21.4637349693 2.51295797243
3375 1 6.6108543012 21.4148126417 3.17200221006
3853 1 6.61917788827 24.3117539373 3.17219123463
3854 1 5.674337084 22.8366080669 1.39344651714
3377 1 7.36881582424 21.4502246195 0.380582906025
3855 1 7.3923287188 24.3032761371 0.373257912997
3403 1 10.1190297094 21.4504264149 1.13699648323
3880 1 8.35805064326 22.8641187648 2.13539657186
3881 1 10.1227729766 24.2884432573 1.12318961551
3911 1 11.1229334766 22.8567893713 2.86075672765
3434 1 12.8588502555 21.4268538636 1.84260186865
3912 1 12.8738222138 24.2809183042 1.84610501279
3943 1 13.8703325449 22.8484748928 3.58808152351
3945 1 14.6031616137 22.8520747627 0.824970691887
3913 1 11.8615977697 22.8638760704 0.107976641234
3466 1 15.6077445968 21.4234093655 2.56924210972
3497 1 18.3495149712 21.4176299767 3.29153236644
3944 1 15.6121813781 24.2739514187 2.56644870065
3975 1 18.3493586681 24.2697874528 3.28780212045
3976 1 17.3432726198 22.8464091376 1.54533488849
3499 1 19.0762700529 21.417742212 0.524581394721
3531 1 21.8165573958 21.4097149451 1.25154575294
3977 1 19.0760341649 24.2708072801 0.523085152734
4008 1 20.0824070523 22.8398565442 2.26951550497
4009 1 21.8159857499 24.2620107688 1.2505582114
3562 1 24.5589470834 21.4008732545 1.9833395357
4039 1 22.8226396673 22.8307887033 2.99766359572
4040 1 24.5583399324 24.2517224858 1.98020743786
4041 1 23.5520289725 22.8314489583 0.234669052736
3594 1 27.305226884 21.3920849525 2.71770343828
4072 1 27.3038881433 24.2456584224 2.70693233826
4073 1 26.2948694233 22.8228636552 0.966664234996
4105 1 29.0400407982 22.8216114428 1.69307839639
3626 1 30.0386433095 21.3824314181 3.44194509326
3628 1 30.7618018372 21.3852599967 0.675111574335
4104 1 30.0685397766 24.259359538 3.41237492467
4106 1 30.7742402585 24.2446283158 0.68068594177