ITEM: TIMESTEP
18000
ITEM: NUMBER OF ATOMS
9560
ITEM: BOX BOUNDS pp pp pp
0.0 88.6430375159
0.0 28.55
0.0 44.3215187579
ITEM: ATOMS id type x y z
2 1 1.37035220057 1.43584744376 1.58544290318
491 1 3.19704839463 2.85973323406 0.649061322091
12 2 3.28914978479 1.88898206517 2.82690683122
13 1 3.22189851334 0.221698197226 0.722717576382
29 1 6.79692198709 1.47968117356 3.04805555635
508 2 5.81619761832 3.08852878185 1.33411593407
31 1 7.43230699572 1.49078338473 0.356734387239
57 1 10.1444710946 1.47326528844 1.07106250687
534 1 8.4593474349 2.93471505085 2.06204199671
56 1 8.41038552305 0.0194045738402 2.0638276911
565 1 11.1449900431 2.89958067556 2.81035664063
88 1 12.8470055984 1.45768022905 1.79757554715
597 1 13.8450196377 2.88739493987 3.52804510679
599 1 14.5709409836 2.8824122791 0.7875657376
567 1 11.8758401019 2.89994076723 0.0551826566483
119 1 13.8428533004 0.0175874885866 3.54534290098
89 1 11.853752117 0.0198900974189 0.0616611570507
121 1 14.5770028644 0.0169656081834 0.788976784636
87 1 11.1148248617 0.0151802277903 2.81861163593
120 1 15.5774404403 1.44473167549 2.52520272096
151 1 18.3171711001 1.436994588 3.25109688274
630 1 17.3095586174 2.86791831841 1.50734721251
152 1 17.312903981 0.0116130942534 1.51152713076
153 1 19.0346389847 1.44175347048 0.479160466692
185 1 21.7813317431 1.42976524123 1.2142108454
662 1 20.0481944628 2.85690030907 2.22867987304
184 1 20.0481422529 0.00863796614099 2.22990335432
216 1 24.5241846065 1.4232211753 1.94513298903
693 1 22.7886263183 2.85342923592 2.9589511544
695 1 23.514619787 2.85305025892 0.203340567094
725 1 25.5357289338 2.84666114216 3.68600818744
248 1 27.2713962657 1.41363442608 2.66929384507
727 1 26.2571402498 2.84857265285 0.933877017403
759 1 29.0029227605 2.84170030241 1.65779830078
280 1 30.0214102611 1.3998504448 3.38332091396
282 1 30.7318556103 1.40677488724 0.636155007229
791 1 31.7503641123 2.82937812146 2.36896755898
314 1 33.4837084874 1.39218631133 1.33678746289
345 1 36.2637549912 1.36656890713 2.00768022598
822 1 34.4984587007 2.81005041929 3.06697446539
824 1 35.2166083363 2.82734520442 0.324085565436
376 1 39.0591511788 1.42189855772 2.63565786012
855 1 37.8749858329 2.93940249975 1.05702346268
378 2 39.5503479972 1.90661295625 0.0483990874285
887 1 40.7385030741 3.13425782933 1.76162381876
410 2 42.6720916484 2.07871649268 0.880106599159
918 1 43.3649832517 2.90000480374 2.85983297554
408 1 41.5810884773 1.43616256716 3.37556901978
4868 1 44.1475080143 0.490734336614 0.234339187936
4866 1 45.8782780429 0.76728316549 1.98349825415
5378 1 45.1966918913 2.82614305885 0.894289251182
5824 2 45.6105347857 2.74445955089 3.1227091752
5344 1 47.9253738511 2.64246913672 2.20699053332
4899 1 49.7877237919 1.35866813261 3.17440892003
5411 1 50.8147101957 2.68907207668 1.28744441243
4901 1 48.9263900944 1.26469684976 0.386154872381
5377 2 50.1767661181 4.01114587849 2.90528125822
4933 1 50.7291689508 0.000137749680679 1.33752455088
4932 1 52.536539607 1.33680718082 2.37371496089
4964 1 55.2511749127 1.42427224337 1.67018992901
5443 1 53.4800791729 2.81960765186 0.622343263181
5441 1 54.2141844302 2.81982189552 3.40912229583
4965 1 53.5757627734 0.048220079686 0.548465097769
4997 1 57.9769655854 1.40923280698 0.949952101364
5474 1 56.9813288725 2.82515863103 2.69289064313
5028 1 61.4363944615 1.42324151547 2.95601587147
5030 1 60.6943371307 1.41032796272 0.212920984664
5507 1 59.6901293878 2.82475621563 1.97354626469
5540 1 62.4205294083 2.84305835664 1.23015472021
5061 1 64.1487913193 1.4134050563 2.24910957152
5572 1 65.147741245 2.84343234165 0.508050937194
5570 1 65.8763446012 2.84334288585 3.27388947845
5093 1 66.8781135946 1.41462051135 1.52988992584
5126 1 69.6168948404 1.41857757262 0.815101563125
5603 1 68.610594395 2.84500271529 2.55452376135
5157 1 73.077799218 1.42087400495 2.85136923603
5636 1 71.3572639352 2.85529856775 1.83818248912
4998 1 72.3453619534 1.41621981397 0.0943011133933
5124 1 70.341542916 1.41542453216 3.57234320977
5189 1 75.7925738001 1.41977099717 2.13714305063
5668 1 74.0659684823 2.8533168853 1.11468330533
5698 1 76.7900904526 2.85419760997 0.406304385218
5696 1 77.5043125479 2.84478266227 3.14879047731
5219 1 78.5449585569 1.41049284394 1.41545437113
5718 1 80.2624253182 2.83639988356 2.42769721262
5241 1 81.318002499 1.40176502723 0.685085299784
5731 1 82.9519170773 2.85585269362 1.73894999654
5239 1 81.9988179935 1.37872297117 3.45992979351
5252 1 84.5191100061 1.37651997838 2.83065382113
5127 1 84.0901648316 1.44428666122 0.0060965478452
1 1 88.0748779982 2.37244794681 2.4362959512
5736 2 85.560752335 2.99706871497 1.33764740825
5258 1 86.3696246812 0.760637170928 1.56298239905
480 1 1.36470002861 4.2498596858 1.51462706784
958 1 1.19711721634 7.23430783821 1.79010505696
969 1 2.98445478535 5.83217789441 0.699590411439
967 1 2.40155843216 5.80135940044 3.39777916966
479 1 0.18166497959 5.37879670015 3.05859359895
959 1 0.107515386403 5.8197701627 0.108131089395
490 1 3.96117486212 4.33033243296 2.44504919398
968 1 3.98578160858 7.24269260058 2.4472261182
507 1 6.76419584717 4.38605280032 3.10860976333
985 1 6.72873594452 7.19751018839 3.13228973847
986 1 5.68961537143 5.77018706691 1.39037153291
987 1 7.44338028905 7.16982616627 0.376246929994
509 1 7.48010542879 4.38451671938 0.331104604722
535 1 10.1897395329 4.34760938934 1.07201227079
1012 1 8.4849341765 5.77335244474 2.09938239713
1013 1 10.2002557933 7.14784416293 1.0792609937
1043 2 11.1348890906 5.73541755465 2.94604366266
566 1 12.8491040535 4.32454635811 1.78758432906
1044 1 12.8621671474 7.12424017563 1.79061013109
1075 1 13.8504913833 5.71998648137 3.52938557103
1077 1 14.578211236 5.71518527701 0.772865638565
598 1 15.5775399028 4.30099929077 2.51782841475
629 1 18.3242280592 4.28976983097 3.2469768546
1076 1 15.5899600923 7.13119317919 2.51836091007
1107 1 18.3207007659 7.1323976321 3.25004122905
1108 1 17.3233840538 5.71359515066 1.50348637302
631 1 19.0383416359 4.28290316612 0.47901092432
663 1 21.777012863 4.28331246189 1.21610788912
1109 1 19.0395342494 7.12002556385 0.474268195535
1140 1 20.0483013593 5.71045914061 2.22758378468
1141 1 21.778865493 7.12675088152 1.21417540789
694 1 24.5203504869 4.27892486581 1.94829360651
1171 1 22.7797859196 5.71184771376 2.95859486533
1172 1 24.5137906384 7.13197679564 1.9521387685
1173 1 23.5067169746 5.70790687291 0.207508798228
1203 1 25.5327419979 5.7024859404 3.6900053167
726 1 27.2696888742 4.27320592524 2.67583367399
1204 1 27.2677338337 7.12929474051 2.68347587775
1205 1 26.2531846159 5.70494482208 0.939274082487
1237 1 29.0022933618 5.70388918057 1.6694216514
758 1 30.019316877 4.26638013705 3.39814075407
760 1 30.7309469209 4.27300701149 0.644774389791
1236 1 30.0226378304 7.13756695192 3.41834118323
1238 1 30.72458374 7.12904401767 0.64660499839
1269 1 31.7436710417 5.70105331792 2.3857153941
792 1 33.4745290086 4.2658207893 1.35617094411
823 1 36.1768821753 4.2990027583 2.07484999235
1270 1 33.4571287491 7.13865263937 1.36362350899
1300 1 34.4636321778 5.71407566534 3.10172776191
1301 1 36.2113014558 7.14436311741 2.07477511655
1302 1 35.1721119672 5.73130176161 0.343924424945
854 1 38.8884310537 4.31643828579 2.80357008717
1332 1 38.9451337383 7.11828593191 2.79721319456
1333 1 37.9437516861 5.7191691762 1.03621417924
886 1 41.6871998305 4.3435139623 3.61310936911
1396 1 42.6309473853 4.38877918168 0.715257923543
1365 1 40.6631767338 5.58666427363 1.69953070945
1364 2 41.4814464419 7.0379662252 3.2117503662
1366 1 42.2293080272 7.0040164122 0.634083290408
6217 1 43.4906569043 5.73193086608 2.63377172334
5346 2 45.0935534309 5.07257055718 0.88547687333
6302 1 45.087501007 7.24581295813 1.384102678
5822 2 47.5646037629 5.06462169986 2.70326252077
6334 1 47.5320129075 7.27833158793 2.83843547533
5739 1 49.0734314877 4.3593641815 0.635723182911
5855 2 49.9862850564 7.32945862278 3.02210484608
5889 1 50.9364677067 5.74442244366 1.34414109565
5857 1 49.171543089 7.29222727932 0.49245261031
5410 1 52.5566817275 4.22972529457 2.35795820699
5442 1 55.2308032854 4.25429214407 1.65315460555
5888 1 52.5765052917 7.16916128089 2.3541307281
5920 1 55.2334993196 7.13306361053 1.64170398895
5921 1 53.4974584672 5.7010297175 0.620360453844
5919 1 54.2427841265 5.68823016312 3.38588695977
5475 1 57.9667733183 4.27164236958 0.940810349008
5952 1 56.9599836929 5.69322207706 2.67348013705
5953 1 57.9539193191 7.13655995609 0.932608533721
5951 1 58.6830560822 7.1326312325 3.69332329435
5506 1 61.4147547315 4.26492632917 2.97878898316
5508 1 60.6860520988 4.2709892991 0.219688509294
5984 1 61.4109978716 7.13289034663 2.97625249245
5985 1 59.6855351658 5.70063576519 1.95968970485
5986 1 60.6842103752 7.13677855936 0.216500036374
6018 1 62.4139020088 5.70208463108 1.23553413546
5539 1 64.1467243184 4.27332322649 2.25256320281
6017 1 64.1425035013 7.13002356137 2.25580830947
6050 1 65.1478956869 5.70287648207 0.511182923782
6048 1 65.8737866188 5.69989297086 3.27646459034
5571 1 66.8777651903 4.27180920884 1.53169494992
5604 1 69.6157160626 4.27230954013 0.812275739394
6049 1 66.8777799949 7.12789871565 1.53322291194
6081 1 68.6079888799 5.69662620093 2.55444254108
6082 1 69.6150353946 7.12020748771 0.810743122573
5635 1 73.0882442703 4.28534738626 2.84817406096
6113 1 73.0819116689 7.08755508474 2.84900492118
6114 1 71.3584387471 5.69121101508 1.82837873865
5476 1 72.3220246842 4.25517334767 0.0780540798443
5954 1 72.315125051 7.12764932054 0.0735184285502
5602 1 70.3479945401 4.27536082722 3.57204124068
6080 1 70.3465959016 7.10998968196 3.57274198213
5667 1 75.759736872 4.28104004474 2.13729836284
6145 1 75.7431452017 7.07859014749 2.13659094607
6146 2 74.0210516394 5.68793592383 0.978054057963
6176 1 76.7625144973 5.69250897445 0.387650956083
6174 1 77.4678123055 5.67153659396 3.16304264708
5697 1 78.5096647841 4.27725229199 1.40749170587
6175 1 78.4618031512 7.07656316108 1.43187942703
6196 1 80.2233201953 5.6905864916 2.43373531716
6197 1 81.224686723 7.12935474096 0.695337510743
5719 1 81.2634028387 4.29258703609 0.674179939369
5605 1 83.8776174464 4.38871181577 0.0361533960339
5730 1 84.5958661092 4.35032993667 2.84087085566
6208 1 84.7083730358 7.20793292109 2.77039074311
6209 1 82.9252570119 5.77376725033 1.75420475506
6195 1 81.9190468598 7.13755546651 3.48141080957
5717 1 81.9549640041 4.28096442435 3.4740779074
5735 1 87.332601512 4.39164133571 1.71893730737
6213 2 87.3700854804 7.0132212417 1.98749892715
6214 1 85.535422529 5.76854282727 1.0589868545
1436 1 2.87639705504 8.75008759782 0.831174994868
1925 1 3.084050626 11.4666644014 0.802278185874
1923 1 2.26219099353 11.4714465218 3.56558328849
1445 1 2.17905501999 8.62836371379 3.43993425796
1915 1 1.11807293459 10.2562327626 1.78913645427
1446 1 3.9628762042 10.0396154289 2.53121123943
1463 1 6.70424046046 10.0104689762 3.16161046221
1464 1 5.70295370393 8.60641113066 1.42342179826
1942 1 5.70938427758 11.4354457932 1.42866838152
1465 1 7.43433600205 10.0046223857 0.364820961156
1490 1 8.46827640005 8.58504513336 2.10349973418
1491 1 10.1833931727 9.99325862761 1.07900328045
1968 1 8.44673532941 11.4227058404 2.10728176228
1999 1 11.1828785855 11.4334392128 2.82224528404
1521 1 11.1812984028 8.56551010385 2.81923610413
1522 1 12.8874501871 9.99006569212 1.79928794565
1553 1 13.8717420003 8.55618576367 3.53035355084
1555 1 14.5912305983 8.55080376285 0.784010530031
2031 1 13.8831955134 11.4198924493 3.53950961398
2033 1 14.610383649 11.422445177 0.787328356945
1523 1 11.8976515992 8.55626709221 0.0524897528451
2001 1 11.8949712171 11.4258232454 0.0558246771246
1554 1 15.6024370033 9.99179136077 2.52937936549
1585 1 18.3162861437 9.99215193209 3.25725727134
1586 1 17.3286930501 8.55684791191 1.50983782182
2064 1 17.3299318837 11.4119930553 1.516101951
1587 1 19.0474120396 9.98645538231 0.490725823358
1618 2 20.0478967651 8.55639828109 2.23279708664
1619 1 21.7787948428 9.98361537002 1.22052291183
2096 1 20.0487882494 11.4091654256 2.24012321351
1649 1 22.775928598 8.55554302825 2.96164572208
1650 1 24.5119107046 9.97749091191 1.95604405017
2127 1 22.7781386621 11.4014039666 2.96654987586
2129 1 23.5044712752 11.4037543742 0.214860212961
1651 1 23.5003078535 8.55494649463 0.212155811562
1682 1 27.2634510645 9.97709962668 2.68714516705
1683 1 26.2495987241 8.55427568087 0.941929038604
1715 1 28.9984589453 8.5546395116 1.67277662122
2161 1 26.2481843178 11.4044187205 0.947478028495
2193 1 28.9952864985 11.3967735802 1.67755278813
1714 1 30.0238543155 9.97197324721 3.41797463878
1716 1 30.7197537089 9.97587656699 0.646636528883
1747 1 31.7237655426 8.54143445051 2.3716678402
2225 1 31.722881668 11.4035618502 2.37495756255
1748 1 33.4612373801 9.97244662726 1.36350504757
1778 1 34.4881285913 8.54303562536 3.09274958576
1779 1 36.2230139566 9.96278034241 2.08213580111
2256 1 34.4869037819 11.3912976014 3.10065387056
2258 1 35.1956664842 11.3838938232 0.349437611452
1780 1 35.1941912152 8.55979062496 0.339923984619
1810 1 38.9783878444 9.95164624067 2.84025217577
1811 1 37.9817181175 8.54383440614 1.04574982041
2289 1 37.9725206518 11.3748858915 1.07016560075
1843 1 40.6261666862 8.55910678884 1.71612374391
2321 1 40.7258050932 11.3498110502 1.78853388415
1844 1 42.376511793 9.95735995928 0.647459089164
2352 1 43.5059470123 11.2241417809 2.4300994556
1874 1 43.3453099598 8.43465732499 2.22092695749
1842 1 41.630797223 9.87076411524 3.52877895405
5856 2 47.0405735507 8.39988806877 0.979724423597
6695 1 45.2954019561 9.90195470557 0.930563940255
6812 1 48.0009923771 11.6584399323 2.15346941248
6215 2 45.9458869239 11.2797960163 2.95341453397
6333 1 49.7995292666 10.0299607035 2.97935759687
6335 1 48.9373049598 9.97880572744 0.438417893383
6367 1 50.9095596268 8.6526810592 1.30093925553
6845 1 50.7925841749 11.4335113214 1.30380971167
6366 1 52.5719026492 10.0590935908 2.33806600271
6398 1 55.2375905734 10.0247023668 1.62991217857
6399 1 53.5160412116 8.588402411 0.602692147125
6877 1 53.5030592683 11.4741181966 0.596605354136
6875 1 54.2613864035 11.4710927223 3.37425255376
6397 1 54.2734638377 8.59417905713 3.3700546859
6430 1 56.9569854901 8.57290931378 2.66492138639
6431 1 57.9475159652 10.0065135799 0.926495823083
6908 1 56.9540997824 11.4544326528 2.66047358112
6429 1 58.6804825733 10.0049580802 3.69012030271
6462 1 61.4090484085 9.99651902597 2.97497277682
6463 1 59.67975281 8.56899745245 1.95329227431
6464 1 60.6839483614 10.0003218591 0.215552417227
6496 1 62.4127641167 8.5642593815 1.23605201972
6941 1 59.6776341586 11.4339175401 1.95117930285
6974 1 62.4152436202 11.4292567404 1.23985508383
6495 1 64.1410529428 9.98985248063 2.25787662987
6528 1 65.1471041542 8.56013795457 0.51564750755
7006 1 65.1471099601 11.4273304473 0.529660375619
6526 1 65.8709483202 8.55547472987 3.2772932859
7004 1 65.8647805822 11.4254462673 3.26974416832
6527 1 66.8762630983 9.98290650817 1.53787836592
6559 1 68.6094029098 8.54813942276 2.55583291387
6560 1 69.6153080389 9.97381882971 0.813020901389
7037 1 68.60376181 11.4094228377 2.55441311927
6591 1 73.065685107 9.95327396989 2.85024215289
6592 1 71.352171737 8.52766098108 1.8362428036
7070 1 71.3423407423 11.3957855313 1.83225231615
6432 1 72.3356055674 9.96561201286 0.0855550136596
6558 1 70.3362628343 9.97155525229 3.57356388903
6623 1 75.756574079 9.94393656256 2.12673409283
6624 1 74.0493186096 8.51629342923 1.10877550255
6654 1 76.7613652957 8.51165792535 0.395586168645
7102 1 74.0525044365 11.3949614195 1.10456183066
7132 1 76.7707544373 11.372038784 0.373257226441
7130 1 77.4718291237 11.3855753747 3.14296137248
6652 1 77.4533687891 8.50756372288 3.14965902318
6653 1 78.4571094369 9.95563569812 1.42303679946
6674 1 80.1832615417 8.52118311797 2.43617998708
7152 1 80.1889215127 11.3656103261 2.41835820637
6675 1 81.2087469928 9.92671527835 0.684496597031
6686 1 84.768954161 10.0511729881 2.783088957
6687 1 82.9648471322 8.5533115401 1.73979585393
7165 1 82.8992339763 11.3330900057 1.70778305827
6673 1 81.8979450642 9.94233532718 3.44865853489
1437 1 88.444076116 8.73705941977 0.387926421891
6691 2 87.472959815 10.1252858264 2.51046122534
6692 1 85.7247567425 8.70831131284 1.07687830195
7170 2 85.3462184054 11.4227957863 0.799872710635
1914 2 1.35357402702 12.8728549097 2.07566002349
2392 1 1.21349525888 15.504936558 1.50437593735
2401 1 2.3348787155 14.3720676094 3.44941469844
2403 1 3.05971825279 14.2737409403 0.642197084974
2402 1 3.98645356455 15.7430993246 2.31042057199
1924 1 4.00161063463 12.8899879465 2.47533873973
1941 1 6.72088440842 12.8535753247 3.14518718249
2419 1 6.74389008846 15.7215563669 3.08964860824
2420 1 5.74251453635 14.2782173203 1.40019283342
1943 1 7.44735230251 12.8474559082 0.357961487517
2421 1 7.45086126463 15.7145194611 0.329207442794
1969 1 10.1697908384 12.8516312967 1.07269831605
2446 1 8.45011950131 14.2814596945 2.08735355059
2447 1 10.1666831707 15.7162465377 1.06170084526
2477 1 11.1746155631 14.2907426823 2.81442177532
2000 1 12.8970982038 12.8576357673 1.80636036371
2478 1 12.8864765574 15.7185318675 1.79906266487
2509 1 13.881031475 14.2946998246 3.54059531072
2511 1 14.6108927428 14.283135276 0.785979989057
2479 1 11.8906145785 14.2838934235 0.0530708211028
2032 1 15.6050521264 12.850641861 2.53160718295
2063 1 18.3193561103 12.8407756316 3.2592337111
2510 1 15.6003984373 15.7092272934 2.53405581271
2541 1 18.3215669374 15.7021037115 3.25897539147
2542 1 17.3254065315 14.27555315 1.51513486224
2065 1 19.053434172 12.8393607473 0.498621498452
2097 1 21.7775775665 12.8340641502 1.22810869116
2543 1 19.0528272227 15.7029314697 0.496024511174
2574 1 20.0511532348 14.2701692939 2.2423128885
2575 1 21.7831518812 15.6951985371 1.22729816386
2128 1 24.5173160321 12.8326823467 1.96114656239
2605 1 22.7879132927 14.2642115587 2.9714126611
2606 1 24.5232860676 15.6892242386 1.96256446666
2607 1 23.5115427845 14.2619549587 0.215540228605
2160 1 27.2673145812 12.827760014 2.69788537684
2638 1 27.2755813691 15.6879073614 2.70272447844
2639 1 26.2526464023 14.2571949861 0.95353767466
2671 1 28.9935652993 14.2441408284 1.68065429338
2192 1 30.018194539 12.8066045845 3.42825622917
2194 1 30.7171361425 12.818555737 0.652692842179
2670 1 30.0005261768 15.6583727309 3.39876632055
2672 1 30.7160907937 15.6679381553 0.659595340451
2703 1 31.7321938896 14.2337199749 2.39714570967
2226 1 33.4604806528 12.8077708711 1.37174699155
2257 1 36.2081548542 12.7892409101 2.09698831154
2704 1 33.4552721669 15.6599224839 1.38019159696
2734 1 34.4666817147 14.220575138 3.11675130241
2735 1 36.2004520011 15.6438273593 2.10445237692
2736 1 35.1874169316 14.2294935895 0.362039666578
2288 1 38.985686479 12.7861471938 2.82365974588
2766 1 38.9730271151 15.6279895021 2.83493211332
2767 1 37.9367199586 14.1975984609 1.09685953712
2768 1 39.630596789 15.5895828967 0.0972277885028
2290 1 39.7168621556 12.7995325093 0.0401864939536
2799 1 40.7330879414 14.1888261736 1.81602887955
2322 1 42.4460105604 12.7441682505 0.769907352182
2800 1 42.3856012328 15.6216024709 0.755785223305
2830 1 43.5700260409 14.1770225905 2.37099689693
2798 1 41.7793772565 15.6262384313 3.54176800853
2320 1 41.8227250614 12.7517182539 3.52074992239
7259 1 45.3376923397 12.4332658881 1.15234761746
6780 2 45.8133479934 14.5525741789 1.06967839898
6778 1 46.3003476854 13.7015081315 3.34947538935
7290 1 48.12496125 14.3455965309 2.00095737294
6811 1 49.8734153983 12.9095839705 3.00807725294
6813 1 49.1069646385 12.8359568531 0.325742374256
7289 1 49.8355228739 15.7222353079 3.06646895036
7323 1 50.8244513869 14.3312703958 1.29794912231
7291 1 49.1517063862 15.6931387131 0.221103133646
6844 1 52.5176338035 12.8914558995 2.33539071851
6876 1 55.2104524331 12.9054048086 1.62678261278
7322 2 52.5380657387 15.7436985736 2.46596206003
7355 1 53.447301972 14.3357631893 0.603346388205
7353 1 54.2460418232 14.3014428262 3.38247707601
7354 1 55.1866938068 15.7358981544 1.63555756635
6909 1 57.9500379837 12.8777884228 0.926292449805
7386 1 56.9507073894 14.3169272761 2.66284593384
7387 1 57.9514634176 15.7260531957 0.924214252159
6907 1 58.6858905609 12.8762916739 3.68926517192
7385 1 58.7005069714 15.7433030724 3.69056758533
6940 1 61.4071051216 12.8586951438 2.97581459476
6942 1 60.6852449966 12.8598054896 0.216505210376
7418 1 61.4110897503 15.7337793317 2.97401432801
7419 1 59.6878260352 14.3008519577 1.95279261124
7420 1 60.6926813928 15.7164014625 0.215395066097
7452 1 62.3954337044 14.2751499388 1.23494842698
6973 1 64.1371699487 12.864338437 2.26160333494
7451 2 64.005614531 15.7009172591 2.29235612782
7484 1 65.1470355995 14.2867414844 0.546945980122
7482 1 65.8540030824 14.2910583711 3.25828116917
7005 1 66.8741430825 12.8494032358 1.54127628413
7038 1 69.6213245299 12.8216565477 0.810511178113
7483 2 67.0163853361 15.5524182572 1.50394171474
7515 1 68.6321181319 14.2429233803 2.5666961672
7516 1 69.5997873687 15.6949496462 0.816669924947
7069 1 73.0556333707 12.8322149841 2.84951582916
7547 1 73.0552999472 15.693560197 2.85016180813
7548 1 71.3285398126 14.2649038578 1.83102945029
6910 1 72.3347843312 12.8351812236 0.0847526320646
7388 1 72.336104058 15.6905994159 0.0888098997113
7514 1 70.3199390269 15.7034201098 3.56603545382
7036 1 70.3361955513 12.8293507613 3.57539530873
7101 1 75.7738317639 12.8236211185 2.11871450404
7579 1 75.7882990834 15.6903949841 2.12395384426
7580 1 74.0592588617 14.2621648527 1.10552389336
7610 1 76.789091613 14.2498185572 0.37582086858
7608 1 77.4961480016 14.2557205175 3.13718945536
7131 1 78.4932016164 12.8020356331 1.38924940198
7609 1 78.5161741044 15.6860936662 1.39970622869
7630 1 80.2132820992 14.2386840671 2.4190309023
7153 1 81.2004554698 12.7771936814 0.673383997948
7631 1 81.224813076 15.6709316383 0.694221472976
7643 1 82.9141623427 14.2143046898 1.73605434334
7164 1 84.6601353035 12.7189550028 2.73876915034
7629 1 81.9381367507 15.6733156438 3.45995690954
7151 1 81.9111769741 12.7930158267 3.44407827702
7642 1 84.6636562707 15.5996937534 2.77144069467
7169 1 87.5050177326 12.5874624279 1.87928417821
7647 1 87.3790274361 15.5702722279 2.02788629012
7648 1 85.6275766974 14.1182371779 1.02870663958
2393 2 88.0757632898 14.3728986923 0.0958964458972
7646 1 86.4098478213 14.0281755562 3.64347891266
2870 1 1.23352648443 18.4489905026 1.41938177291
3359 1 3.12637409865 19.861892049 0.551799886693
3348 1 2.17637161624 19.8228573831 3.15386380095
2881 1 2.80494105605 17.0113468501 0.339333513006
2879 1 2.17297875624 17.0534217762 3.19456560627
2877 2 0.190345849267 18.4804327784 3.68784398053
2880 1 3.936622676 18.4446520559 2.27253777787
2897 1 6.7270355141 18.5621645078 3.0719683046
2898 1 5.72796079371 17.1424924839 1.32889311816
3376 1 5.72037049043 19.942110293 1.34075757991
2899 1 7.43633894706 18.569479617 0.293874074549
2924 1 8.44676265157 17.1515802814 2.0615034989
2925 1 10.1432011012 18.5946412326 1.05619080166
3402 1 8.39143664828 20.03020801 2.06708732363
2955 1 11.1569596882 17.1592117684 2.80436399899
3433 1 11.123102823 20.0271923118 2.81095051488
2956 1 12.8684389449 18.5883085383 1.7966726815
2987 1 13.8733210453 17.1514379191 3.54420381023
2989 1 14.602033174 17.1477977283 0.782837408973
3465 1 13.8591517149 20.0141480313 3.54489764356
3467 1 14.5937359553 20.0086025274 0.783034572274
2957 1 11.8793102339 17.1534387142 0.0495147436682
3435 1 11.8631835865 20.018690528 0.050509430733
2988 1 15.5954826857 18.5769179012 2.52829469211
3019 1 18.3260517008 18.5652076055 3.25564846303
3020 1 17.3245680726 17.1383415293 1.51251086206
3498 1 17.3241286198 19.998485708 1.51117907468
3021 1 19.0540150091 18.5624137769 0.494597599761
3052 1 20.0538733616 17.1288995083 2.24122908666
3053 1 21.7860449147 18.5527676807 1.22549356447
3530 1 20.0567724076 19.9881184553 2.23885405056
3083 1 22.7920185642 17.1213708914 2.97110748187
3084 1 24.5255416744 18.5433923784 1.96023928372
3561 1 22.7945571459 19.9777168526 2.96864608488
3085 1 23.5154302324 17.1181845213 0.214371485845
3563 1 23.5180831002 19.9752229636 0.211771169521
3116 1 27.2782165285 18.5359024538 2.69825639095
3117 1 26.2549879201 17.110190252 0.951947054244
3149 1 28.9955639332 17.1045147717 1.67696575548
3595 1 26.2550359501 19.963879617 0.948060921804
3627 1 28.9971152624 19.9643962532 1.67022419034
3148 1 30.0080065484 18.5515403835 3.39962466577
3150 1 30.7154222417 18.5244921341 0.658292898805
3181 1 31.7297451736 17.096537391 2.39127615934
3659 1 31.7325620062 19.9701777292 2.37725762149
3182 1 33.4525858493 18.5179516639 1.37579480944
3212 1 34.4635507065 17.0906167683 3.11158971017
3213 1 36.1958289803 18.5089040883 2.09422814505
3690 1 34.460371264 19.9543609285 3.10040503014
3214 1 35.1833558455 17.0813096902 0.363215300004
3692 1 35.1804604849 19.9378321855 0.35472414923
3244 1 38.965287166 18.5033713658 2.82772838979
3245 1 37.9302321085 17.0652868566 1.09917324246
3723 1 37.9290475107 19.9238045088 1.07630682599
3246 1 39.6376666365 18.4911865211 0.0796661768959
3277 1 40.6928055335 17.0621684839 1.80969356112
3755 1 40.713484991 19.925599085 1.78887140459
3278 1 42.3581312525 18.5119377146 0.705701318087
3276 1 41.6753374261 18.4861021108 3.57977132219
3786 2 43.2443608645 19.9257996 2.64736827668
3308 1 43.3397987287 17.1236772547 2.42884300877
7737 2 45.6452700601 17.2188501569 2.51279321823
7735 1 44.7510560893 18.8763397585 1.24761548749
7734 1 47.1470945731 18.7786729894 2.83390568344
7736 2 46.7458397471 20.0187571837 0.515016261651
7768 1 48.1084652955 16.8774389448 2.00602145185
7767 1 49.6924781703 18.6164581587 2.93185930605
7801 1 50.7664509837 17.1502866025 1.30507807029
8279 1 50.7187240486 20.0456936631 1.28455950342
7769 1 48.8953873087 18.7018666365 0.567255369854
7800 1 52.4571374384 18.5926870449 2.32627339104
7832 1 55.1867993502 18.5681318445 1.62554571155
7833 1 53.4377239461 17.1384573225 0.609460734048
8311 1 53.4393526572 19.9982373276 0.604875348799
7831 1 54.2240549592 17.1818665313 3.37388417002
8309 1 54.2001173766 20.0038929934 3.3693530652
7864 1 56.9459358876 17.1541696791 2.65755212419
7865 1 57.9548740775 18.5641556611 0.919611879442
8342 1 56.9554931718 19.9821763168 2.66062221999
7863 1 58.7090907006 18.5671950633 3.6776103601
7896 2 61.3783395059 18.567026013 2.83886074476
7897 1 59.6760372499 17.1322231043 1.93600317889
7898 1 60.7028778381 18.5591833432 0.207167469764
7930 1 62.4238541919 17.1347420564 1.22145317672
8375 1 59.6826708038 19.9997027106 1.9292055184
8408 1 62.4372149529 19.9891103324 1.21227233769
7929 1 64.1323879804 18.5457557045 2.25958851822
7962 1 65.1879767825 17.1027235148 0.581221193147
8440 1 65.1231395045 19.9827447252 0.520146003301
7960 1 65.8632650525 17.1070124251 3.20659902928
8438 1 65.8442072554 19.970799733 3.28156546412
7961 2 66.8783878353 18.6859715048 1.53540574756
7993 1 68.5826871286 17.1285251448 2.5380603495
7994 1 69.5933334466 18.5455459596 0.816772131365
8471 1 68.6161155494 19.9845237002 2.56124792578
8025 1 73.0615744242 18.5429875161 2.85307310053
8026 1 71.323795321 17.1213037614 1.82735665287
8504 1 71.3332593893 19.9650138193 1.83087988303
7866 1 72.3434472607 18.538321167 0.086567239064
7992 1 70.3127351118 18.5359298132 3.5648146419
8057 1 75.7998098116 18.5483283894 2.13236793805
8058 1 74.0680507026 17.1171585638 1.10791981005
8088 1 76.8029641756 17.1189514294 0.383785864839
8536 1 74.0738217004 19.9684608483 1.11081049783
8566 1 76.8130393916 19.9723045522 0.390336791114
8564 1 77.5370894627 19.9818270024 3.15889390987
8086 1 77.5171531217 17.1236166966 3.14818664205
8087 1 78.5400089371 18.5542978668 1.4111461291
8108 1 80.2489495124 17.1237156655 2.4312734842
8586 1 80.2913182466 19.9859192764 2.44226298609
8109 1 81.2789063927 18.5481468437 0.695929878172
8121 1 82.9689975483 17.0884746548 1.75515767453
8599 1 83.0430640205 19.9774878423 1.74592442945
8107 1 82.0020593054 18.5507500244 3.46566372649
8120 1 84.7594415859 18.5195316308 2.81372010566
7995 1 83.9219045599 18.4741421679 0.0131710082174
3349 2 88.0788460732 19.649019267 0.307597782079
8125 1 87.3394380436 18.3298160301 1.96849592923
8126 1 85.5661119338 16.9885331093 1.09757076123
8604 1 85.6166126496 19.890283501 1.05689969329
2871 1 88.4444089207 16.9465730503 0.125935362437
3837 1 1.16623475333 21.2469791875 1.33270861151
3835 2 2.21130548318 22.2927358195 3.21985180412
3882 2 2.17609085762 23.9181869841 0.476327378566
3836 1 3.7342159666 24.2644693441 2.39002417327
3358 1 3.95817617228 21.3261282519 2.24846876686
3375 1 6.5918987025 21.4397266769 3.11395251195
3853 1 6.54561195751 24.2712320683 3.13358967706
3854 1 5.63695986712 22.8941755847 1.39720512647
3855 1 7.35932930918 24.2883380248 0.32696245628
3377 1 7.3816533261 21.4536410202 0.318284318188
3403 1 10.113574026 21.452621642 1.06571007893
3880 1 8.34207390487 22.8718061263 2.09275406797
3881 1 10.1052540813 24.2824139693 1.07944932154
3911 1 11.1011304602 22.8713328463 2.82476524389
3434 1 12.8534825233 21.4432191524 1.80239361711
3912 1 12.8449634711 24.2875236076 1.8069387058
3943 1 13.8488603317 22.8639892745 3.55019853243
3945 1 14.5873424917 22.8606912583 0.785683401695
3913 1 11.8544747026 22.8643719736 0.0566468752965
3466 1 15.5900731779 21.4334943127 2.5296163763
3497 1 18.3266433044 21.4236531673 3.25461700881
3944 1 15.5848704377 24.2846026442 2.53131046027
3975 1 18.323824759 24.2791732231 3.2542632113
3976 1 17.3215578592 22.8541590854 1.51140346333
3499 1 19.0541135103 21.4203496724 0.493274699273
3531 1 21.7876995013 21.4104855129 1.22311840512
3977 1 19.0509982356 24.2773842395 0.491662309265
4008 1 20.0565520469 22.84608777 2.23688969322
4009 1 21.7866157923 24.2687144776 1.22030965042
3562 1 24.5267689546 21.3988182662 1.95652304953
4039 1 22.7945023922 22.835569865 2.96520425586
4040 1 24.5242757635 24.2585420925 1.94991557831
4041 1 23.5186106908 22.8325801273 0.208829133156
3594 1 27.271945189 21.3865075273 2.69062891596
4072 1 27.2620597397 24.2512711864 2.67340510595
4073 1 26.2556816896 22.8226620463 0.940946488877
4105 1 28.9740776736 22.8066311036 1.66889117336
3626 1 30.0220944118 21.4047519465 3.39012334217
3628 1 30.7136313741 21.400743859 0.65117390169