ITEM: TIMESTEP
12000
ITEM: NUMBER OF ATOMS
9560
ITEM: BOX BOUNDS pp pp pp
0.0 88.6430375159
0.0 28.55
0.0 44.3215187579
ITEM: ATOMS id type x y z
2 2 0.884386902021 0.954658623812 0.933513675466
491 1 2.724919808 2.75197670218 0.629269248454
489 1 1.98884020534 3.3812558022 3.60945695112
11 1 1.6767397355 0.708946632565 3.3780771609
12 2 3.63887429027 1.80742312165 2.44260608477
29 2 6.82453415515 1.86934211427 3.08059947773
508 1 5.51105071274 2.85800366819 1.24366606936
31 1 7.27974795932 1.49043470859 0.299152240811
57 1 10.0382596337 1.48168076741 1.00265360728
534 1 8.36931131951 2.99548018865 1.96415834858
56 1 8.23012987331 0.0516682166806 2.00857911338
87 1 11.0274179466 0.0708809190099 2.75607541852
565 1 11.0522708072 2.96849114477 2.76024485403
88 1 12.7895418823 1.50093723777 1.75811859677
597 1 13.7756743056 2.96495713558 3.49991427541
599 1 14.5296004788 2.90473154782 0.738320424521
121 1 14.5331225916 0.0490185667361 0.742742974854
119 1 13.7879330629 0.0638392592336 3.49166458384
89 1 11.8073006857 0.0635994823283 0.00297684629868
120 1 15.5231461647 1.48666503525 2.48195699371
151 1 18.2955206999 1.45975016388 3.20859810683
630 1 17.2863855179 2.86742609299 1.45679337721
152 1 17.2713172966 0.0507854364412 1.46323568459
153 1 19.0096918743 1.44834284228 0.43021961793
185 1 21.7845569602 1.44047293687 1.17746016087
662 1 20.0406487765 2.86762417159 2.18643169072
184 1 20.0357712833 0.0294357229899 2.18652103027
216 1 24.5453201141 1.43166374222 1.91388387033
693 1 22.8026723585 2.86343240509 2.92330895662
695 1 23.5332243002 2.85755615737 0.170775605684
725 1 25.5582214048 2.85861628111 3.66011946861
215 1 22.7989239703 0.0156809610398 2.92332563271
217 1 23.5308673119 0.00889945715269 0.16980527488
247 1 25.5504931038 0.00581821267 3.66160706999
248 1 27.292530209 1.42268886991 2.65053129841
727 1 26.2879940717 2.85148779833 0.904905167394
759 1 29.0275194544 2.84413336983 1.63914786524
280 1 30.0324831716 1.41188847097 3.38427306846
282 1 30.7487561544 1.4016055388 0.613865179334
791 1 31.7575180296 2.83331845068 2.35950623857
314 1 33.4717216844 1.38937615533 1.33145480975
345 1 36.1944975715 1.37105958565 2.06981498682
822 1 34.4758498549 2.81705718036 3.0842321939
824 1 35.2037473067 2.81703102271 0.312934216046
376 1 38.9245302572 1.31664580073 2.82845302285
855 1 37.8928474657 2.78525998684 1.06925980167
887 2 40.3729421599 2.8061160074 1.94537781627
378 1 39.5033605368 1.26747212758 0.0684636771899
410 2 42.9022277103 1.08784523619 1.20237442161
918 1 43.9884909349 2.68752963137 2.69308347491
408 1 41.8058094487 1.36091836552 3.45812001769
1396 1 42.2589327157 3.83799295471 0.727323605669
4866 2 45.947924735 1.09758424129 2.85627032063
5344 1 47.8618485331 2.74744101844 2.42928683702
5378 1 46.1687020555 1.63808464009 0.465166599341
5346 2 44.5872077562 3.75998686054 0.415507646475
4899 1 49.7986011927 1.45796385846 3.10413331098
5411 1 50.5924846275 2.91079617895 1.26966838693
4901 1 48.9751732109 1.14198328671 0.513913766908
4933 1 50.8260960938 0.0446925490962 1.33650734081
5347 2 48.0385856506 3.115631543 0.143837023114
4932 1 52.4722391301 1.47181025556 2.37513799438
4964 1 55.2128493859 1.40684573929 1.66562950378
5443 1 53.4630506288 2.85455211722 0.618367106476
5441 1 54.2269535018 2.83398399778 3.42002597145
4997 1 57.9587471197 1.39104863284 0.960342501079
5474 1 56.9524927054 2.8211605201 2.69631092114
5028 1 61.4065984585 1.41040203972 2.99356144539
5030 1 60.682607396 1.39448112912 0.248670791941
5507 1 59.6770710099 2.82795258203 1.98475945949
5540 1 62.4013106156 2.83117456239 1.26995604509
5061 1 64.118081568 1.39494311402 2.29734291372
5572 1 65.1240508864 2.8305252721 0.552513828286
5570 1 65.8521278832 2.82634047602 3.31827830124
5093 1 66.8543998042 1.40297689006 1.57365720765
5126 1 69.5912298464 1.40974214532 0.856586873234
5603 1 68.5871377368 2.83318187487 2.59830917228
5157 1 73.0403215044 1.40562025683 2.90333166534
5636 1 71.3227582968 2.84366225283 1.87967660593
4998 1 72.3144624882 1.40886390747 0.142511371048
5124 1 70.3176525809 1.40469647368 3.6194476106
5189 1 75.7521279667 1.40471458591 2.19075892765
5668 1 74.0332741408 2.83852291155 1.16834540681
5698 1 76.7435701436 2.84154466138 0.456536711397
5696 1 77.4689713189 2.84324366139 3.21454870108
5219 1 78.4721151348 1.40392497153 1.47869854846
5718 1 80.1995151172 2.83899258801 2.50241888677
5241 1 81.1936933571 1.40077457627 0.765642520992
5731 1 82.9349923546 2.82456956954 1.78740579295
5239 1 81.9189327032 1.4009865466 3.52716117761
5252 1 84.6397254442 1.35796734653 2.8309680148
5127 1 83.8720321427 1.41874036863 0.055449460792
1 1 88.6054918492 2.65251525562 2.49255168785
5257 1 87.3669995872 0.778884050376 1.65337756053
5736 1 85.7597903898 2.74092780016 1.14879388014
481 1 88.4333221933 2.91007778682 0.140573987707
480 1 1.25576709772 4.45613394677 1.52715937264
958 1 1.20931010798 7.20000597919 1.56803334151
969 1 3.00652989682 5.80335763201 0.611324282222
967 2 2.40537115768 5.85884806413 3.25950774945
479 1 0.150622420789 5.60124393544 3.10491596058
490 1 3.89359138901 4.32375679003 2.31258991645
968 1 3.93826067677 7.29725401444 2.30624252654
507 1 6.58556993431 4.3893011249 3.00319675723
985 1 6.590926589 7.23043266643 3.0017491917
986 1 5.58533250304 5.75260122981 1.22564004114
509 1 7.26874728699 4.3161618714 0.214922705302
987 1 7.30547403183 7.19877376803 0.225200631393
535 1 10.0541458593 4.32313390819 0.933212986591
1012 1 8.31589421319 5.76120943469 1.97981411408
1013 1 10.0367236776 7.20084094039 0.956660821596
1043 2 10.9673457259 5.76871911193 2.55760377449
566 1 12.7976282454 4.33969343934 1.74314189928
1044 1 12.8093135969 7.15635734763 1.75205693594
1075 2 13.9933047696 5.74412009138 3.38457447091
1077 1 14.5498539742 5.75066997929 0.753100111643
598 1 15.5827968773 4.29463659205 2.46018184369
629 1 18.303607036 4.29984074725 3.20584736167
1076 1 15.5961612395 7.18645735543 2.47427448208
1107 1 18.3126489116 7.15920796143 3.22096912555
1108 1 17.3195904746 5.73553438894 1.4693367307
631 1 19.0255517506 4.28326941952 0.436683336539
663 1 21.7874259617 4.28625756712 1.17940842113
1109 1 19.0472110396 7.15027823214 0.45285165484
1140 1 20.0472166771 5.71743727987 2.19210221042
1141 1 21.7918782574 7.14131747362 1.18597769838
694 1 24.5464691018 4.28410284567 1.91595093126
1171 1 22.8036730575 5.71441429666 2.92604560858
1172 1 24.5469639613 7.13764420917 1.91947677463
1173 1 23.5330481681 5.71058678384 0.17450790424
1203 1 25.5623086493 5.71130731128 3.6606582981
726 1 27.3002185901 4.2822034694 2.65355558395
1204 1 27.3055723949 7.1338082281 2.65525519487
1205 1 26.2875883305 5.70826522187 0.909041201926
1237 1 29.040003057 5.70678496667 1.64610089155
758 1 30.044346493 4.27510584261 3.39222372151
760 1 30.7510700494 4.26241614955 0.61062222947
1236 1 30.0843485979 7.12856447834 3.3961430786
1238 1 30.7690824074 7.13799972719 0.63327988516
1269 1 31.752002239 5.66797364441 2.33240802109
792 1 33.4870254391 4.24601227264 1.32739137157
823 1 36.213211051 4.23332059646 2.07290428893
1270 1 33.4977791215 7.11384723306 1.35270414076
1300 1 34.516636657 5.65460175183 3.06881456699
1301 1 36.2199405986 7.10777451371 2.0805777474
1302 1 35.2258487733 5.67638752946 0.322748162833
854 1 38.8829658129 4.24849675004 2.83215389802
1332 1 38.986052504 7.05759746371 2.81166564347
1333 1 37.9348193326 5.65425695355 1.055923226
856 1 39.6337294372 4.13939936131 0.105014204272
1334 1 39.6584394488 7.07896762052 0.07159393174
886 1 41.8197848909 4.11460515403 3.33490208206
1365 1 40.6985396762 5.56176729062 1.77074041445
1364 1 41.6550279466 7.00645844112 3.44799242914
1366 1 42.4938504331 6.86196755089 0.739688446046
6217 1 43.6651872352 5.41707295257 2.39802662144
6302 1 44.9173610038 6.20447274445 0.207571725262
5824 2 45.9508731076 4.1603510106 2.94923549811
5822 2 47.6868524792 6.60599058049 2.47758362476
5739 1 48.9518653551 5.00329333156 0.795285040843
5377 2 49.85074424 4.25649510402 2.99096778054
5855 1 49.8107175857 7.05952495 3.05807847884
5889 1 51.0105423641 5.79434359007 1.33979753578
5857 1 49.1002115339 7.40827821125 0.506025541146
5410 1 52.4861895272 4.22882182901 2.38915065148
5442 1 55.2281643638 4.24446842674 1.66550347888
5888 1 52.6377424597 7.08779845673 2.46787184566
5920 1 55.227319288 7.11726019852 1.69144126355
5921 1 53.5276587902 5.67838923436 0.628502322885
5919 1 54.2528821697 5.64419063763 3.4362509648
5475 1 57.9491576548 4.25958230746 0.958436484176
5952 1 56.9513999674 5.68204139894 2.70397952841
5953 1 57.9480340224 7.12240433225 0.968103290834
5506 1 61.3995383946 4.25805143714 3.01283938881
5508 1 60.6786080544 4.26499163522 0.24633050535
5984 1 61.4021058773 7.11926255775 3.01510120021
5985 1 59.6751485302 5.6902841397 1.98860196393
5986 1 60.6774803317 7.12581853592 0.249708351578
6018 1 62.4021956939 5.69152293904 1.27181960951
5539 1 64.1274843766 4.25917260767 2.29513613947
6017 1 64.1290729398 7.11704120936 2.29742509596
6050 1 65.127353902 5.69081500761 0.551750095609
6048 1 65.8557355346 5.68472906074 3.32128090269
5571 1 66.8553398569 4.2596008342 1.57628544414
5604 1 69.5932944917 4.26846407426 0.858401580284
6049 1 66.8558342625 7.11574961573 1.57806926569
6081 1 68.5849609393 5.68703538133 2.60243923199
6082 1 69.590820866 7.11464783946 0.860862560987
5635 1 73.0395860212 4.26513624177 2.91224721877
6113 1 73.0397441686 7.12800180421 2.91432814535
6114 1 71.3247118651 5.69380133611 1.8821297221
5476 1 72.3121511039 4.26757611326 0.137503678025
5954 1 72.3124203899 7.12303841687 0.138785087903
5602 1 70.3196019975 4.26382408234 3.6221242378
6080 1 70.3158923741 7.11354194365 3.62524964825
5667 1 75.7570920108 4.2668411804 2.1964327826
6145 1 75.7686699228 7.13477651915 2.19272369612
6146 2 74.0375946409 5.69923029377 1.17093978405
6176 1 76.7451158108 5.69352937898 0.457175309672
6174 1 77.4728917322 5.70236359617 3.21605637677
5697 1 78.473847186 4.26967677334 1.47893304319
6175 1 78.4825379539 7.12052217681 1.47362423827
6196 1 80.2141392792 5.696917456 2.49896436749
5719 1 81.2133224953 4.26431846067 0.762262379393
6197 1 81.2178718659 7.11780416319 0.748806827195
5730 1 84.6746601382 4.22645866015 2.75543559004
6208 1 84.6502873334 7.13167435022 2.79066087367
6209 1 82.9386933209 5.68353913742 1.77589549693
6195 1 81.9510977373 7.12090754379 3.51083595287
5717 1 81.9438500869 4.26189122629 3.5175122819
5605 1 83.949311742 4.24130104302 0.0501370717034
6083 2 83.8951122851 7.12785449778 8.08959447887e-05
5735 1 87.3009310479 4.41438782082 1.82791801574
6213 1 87.3860756389 7.21060410876 2.02011788374
6214 1 85.6196460759 5.76228309611 1.00055156441
959 1 88.466951523 5.75884255417 0.0105972337076
1436 1 2.84959908885 8.66555033502 0.542101701844
1925 1 2.80927940519 11.4681599837 0.488545248522
1923 1 2.03601540651 11.3545866744 3.45225311113
1445 1 2.09588503323 8.63415236885 3.29558028221
1915 1 1.08658831905 10.0450745071 1.54126138211
1446 1 3.81399948145 10.0614239396 2.30740046504
1463 1 6.58196827288 10.074340018 3.02245206476
1464 1 5.59536768433 8.67142799265 1.25853810405
1942 1 5.52710719316 11.4918000961 1.26091307634
1465 1 7.31240231379 10.0663958422 0.256724542212
1490 1 8.32529538116 8.61696064142 2.00419110071
1491 1 10.0766034557 10.0154741392 1.02204590265
1968 1 8.32363104865 11.4663987984 2.01913335209
1999 1 11.0776756567 11.4445703685 2.76635102627
1521 1 11.0863519892 8.54304647627 2.76954822907
1522 1 12.8134868579 9.99174450144 1.76936542599
1553 1 13.8010387024 8.53017158102 3.50931387392
1555 1 14.5488228673 8.57667731931 0.749344458804
2031 1 13.8227545618 11.4238719749 3.50283813897
2033 1 14.5590286063 11.4275013062 0.758296872026
2001 1 11.8177220172 11.4418613156 0.0252099875645
1523 1 11.8183221062 8.58475762266 0.00821572959259
1554 1 15.5578389842 9.98804168987 2.50537454758
1585 1 18.3139014216 9.99744777569 3.22727454614
1586 1 17.3145515815 8.58584526922 1.47667494922
2064 1 17.3063264512 11.4203625331 1.48706010088
1587 1 19.0504817115 10.0035829788 0.461350050618
1618 1 20.0530094864 8.57483545404 2.20436730211
1619 1 21.7971939306 9.99761430694 1.19264324934
2096 1 20.0551227292 11.4210449988 2.21003612957
1649 1 22.8069647039 8.56798844278 2.93147964199
1650 1 24.5507270675 9.99330706841 1.92520528718
2127 1 22.8105097204 11.4201905168 2.93656172934
2129 1 23.5388758606 11.4247554231 0.184185920769
1651 1 23.5355636368 8.56789887397 0.179720272654
1681 1 25.5662475645 8.56140288312 3.6628245855
2159 1 25.5706941639 11.4172503169 3.66927522257
1682 1 27.3090767451 9.98389622998 2.66174670752
1683 1 26.2884127982 8.56382574212 0.915020235899
1715 1 29.0501263329 8.55724127706 1.66029544474
2161 1 26.292290443 11.4202312621 0.921514244503
2193 1 29.0475420016 11.4080605801 1.66086491218
1714 1 30.0848215144 9.96622764806 3.40566627115
1716 1 30.7780050517 9.97538961129 0.647663967786
1747 1 31.7915849432 8.55473621633 2.38348620568
2225 1 31.7705981406 11.4232858368 2.35788216533
1748 1 33.5031949334 9.97269269939 1.36878094478
1778 1 34.4842028096 8.54275133712 3.09884533198
1779 1 36.2294062424 9.94731455762 2.1012551877
2256 1 34.5302964734 11.4135729763 3.0901838389
2258 1 35.2402803129 11.3857808691 0.351594126807
1780 1 35.2276338758 8.53452821142 0.342340692406
1810 1 39.0042597169 9.92801839778 2.84854953271
1811 1 37.970678891 8.51820661642 1.08417452415
2289 1 37.98842961 11.3603566151 1.09799034394
1812 1 39.7176510376 9.92304032499 0.0632929884716
1843 1 40.7299110432 8.49044302964 1.79949570696
2321 1 40.7648769855 11.356190342 1.85906527623
1844 1 42.3738697432 9.91250585818 0.759066296725
2352 1 43.3593279123 11.3191855415 2.60589943511
1842 1 41.6643971963 9.87553408831 3.66639904638
1874 1 43.2949169653 8.39310305979 2.50045035694
5856 2 47.5139359474 9.1226637698 0.647799715642
6695 2 44.6945055891 9.86193936034 1.54912271157
6215 1 45.9878170735 10.8043255611 3.40280263012
6812 1 47.9829108297 11.4370529329 1.95837192244
6334 1 47.9964473551 8.98785012292 2.76846146233
6333 1 50.059302779 10.0534119432 3.01509568697
6335 1 49.4412000971 10.0658234977 0.435424807714
6367 2 51.0954350571 8.43732591474 1.52549764797
6845 1 50.8483679096 11.653383761 1.3128630344
6366 1 52.579073535 10.0362536485 2.41230937554
6398 1 55.2469168554 10.0063669968 1.68829750633
6399 1 53.5574849528 8.57214523638 0.669770343352
6877 1 53.5309079879 11.4629015324 0.659403231034
6875 1 54.2527682267 11.4492635698 3.42531216686
6397 1 54.2882008209 8.5724662823 3.45803526349
6430 1 56.9556873752 8.5552871943 2.71112813795
6431 1 57.9562187742 9.98737991057 0.967866459446
6908 1 56.9671002663 11.4312809216 2.70724835144
6462 1 61.4053102597 9.98013336424 3.01624467492
6463 1 59.6766024 8.5519091358 1.99234484298
6464 1 60.6758016916 9.98016416451 0.249580742327
6496 1 62.4040334411 8.55062560535 1.27441289699
6941 1 59.6849391226 11.4168098886 1.99198938838
6974 1 62.4070088082 11.4114508662 1.27794505972
6495 1 64.1331052763 9.9788858288 2.29901734978
6528 1 65.1269773556 8.54666569315 0.554141617658
7006 1 65.1275973287 11.407988121 0.557172732291
6526 1 65.8563813884 8.54335076705 3.32172036259
7004 1 65.8623622774 11.417319177 3.31702832033
6527 1 66.8537654914 9.97405080024 1.57982665131
6559 1 68.5826661589 8.5424181318 2.60359441466
6560 1 69.5808991826 9.97441231915 0.86581195448
7037 1 68.5661587139 11.4150505812 2.60733050769
6591 1 73.0398026241 9.97144693202 2.90989654594
6592 1 71.3173889435 8.54091884989 1.88439830176
7070 1 71.3038464022 11.4031453537 1.89022493079
6432 1 72.3160379767 9.97075106363 0.146655854225
6558 1 70.3037993738 9.97308098125 3.62701158395
6623 1 75.7721168568 9.97196993592 2.18972631696
6624 1 74.0419550414 8.54766785218 1.16576391932
6654 1 76.7705471401 8.54938726246 0.43713977581
7102 1 74.0457995951 11.3986130929 1.17003843841
7132 1 76.7883725578 11.3889001109 0.441160544588
6652 1 77.4918759462 8.55253697864 3.22035299745
7130 1 77.5100075855 11.3940619597 3.22902528822
6653 1 78.5039387977 9.97133360987 1.46848709014
6674 1 80.2211512872 8.54297584146 2.49958334864
7152 1 80.2398229596 11.3997150551 2.51556501193
6675 1 81.2099119203 9.96790622779 0.754354286465
6686 1 84.6738323018 9.97293905929 2.80781214783
6687 1 82.9345841402 8.55543118641 1.77757198915
7165 1 82.9619839155 11.3995744972 1.79727003663
6673 1 81.9577324428 9.96893790232 3.5245220284
6561 1 83.9167464492 9.96020693042 0.026822491122
6691 2 87.2951136206 9.94128894548 2.08093241808
6692 1 85.6180574271 8.52536754783 1.04287674007
7170 1 85.5699412038 11.4085346078 1.12538895711
1437 1 88.4325100209 8.50449314749 0.180384741509
1914 2 1.08933984636 12.588287846 1.80309977277
2392 2 1.10787438572 15.6780784308 2.02263976518
2401 1 2.01375032524 14.1887140948 3.45225533862
2403 1 2.68075568318 14.352722743 0.611937574253
2402 1 3.76186957211 15.6714901388 2.3788561413
1924 1 3.73716474484 12.8444419185 2.30136009038
1941 1 6.55132048582 12.8700285065 3.03032747275
2419 1 6.50030050331 15.7553176014 3.05293128627
2420 1 5.49875381841 14.3164295515 1.31015788593
2421 1 7.28250114695 15.7309248648 0.289598486929
1943 1 7.29188728281 12.9018273244 0.284744009751
1969 1 10.0642113236 12.8857796503 1.03234798674
2446 1 8.28350528227 14.3179740824 2.0376774701
2447 1 10.051024483 15.7273649517 1.02989762418
2477 1 11.0684674146 14.3064662897 2.767707736
2000 1 12.820139192 12.8660791911 1.7645219733
2478 1 12.8224047261 15.7195071998 1.76019550049
2509 1 13.8342417771 14.2887009405 3.49904437205
2511 1 14.5671892573 14.28620098 0.75405351683
2479 1 11.8165369852 14.2973785826 0.0240660178157
2032 1 15.5718339454 12.8494172219 2.49732000963
2063 1 18.3178953625 12.8427281148 3.22531691337
2510 1 15.5771464488 15.7128350725 2.48945597397
2541 1 18.3250455649 15.709220759 3.21624790916
2542 1 17.3135074926 14.279316947 1.48143072148
2065 1 19.0491925017 12.8515305874 0.467374759182
2097 1 21.7987696703 12.8505425154 1.19591500501
2543 1 19.0524234334 15.7094176836 0.464725256771
2574 1 20.0596265082 14.2769171842 2.20728004988
2575 1 21.8006580866 15.7073131669 1.19366353205
2128 1 24.553221337 12.8490089401 1.92959380941
2605 1 22.8119892926 14.2756918707 2.93693074767
2606 1 24.5526099759 15.7043838236 1.92753346364
2607 1 23.5400831301 14.2793169134 0.184472320285
2637 1 25.5701639881 14.2749668568 3.67451457904
2160 1 27.3108698583 12.8467722837 2.66880816105
2638 1 27.3057739249 15.701245116 2.66729757186
2639 1 26.2920951613 14.2758082554 0.920448907501
2671 1 29.0402493726 14.273804904 1.65455173587
2192 1 30.0552503089 12.8422160829 3.40038604811
2194 1 30.76799627 12.8418879898 0.633664324907
2670 1 30.0536588494 15.6984061134 3.40709211329
2672 1 30.7682776662 15.6982802766 0.629558545649
2703 1 31.7796630846 14.2669867093 2.37524060417
2226 1 33.5116830759 12.833783033 1.35811927355
2257 1 36.2560188548 12.8185872689 2.08950124824
2704 1 33.5102934404 15.6916838557 1.35146681862
2734 1 34.5166788121 14.2604029962 3.09896321778
2735 1 36.2612775338 15.6794567236 2.07801369921
2736 1 35.2475007759 14.2551465194 0.342852496675
2288 1 39.0186468524 12.8082415692 2.82892563501
2766 1 39.0444609401 15.6595987859 2.81465212592
2767 1 38.0006387139 14.2352409675 1.0828272822
2768 1 39.730666468 15.6581775362 0.0793803321139
2290 1 39.7246594917 12.7684892487 0.090623907959
2799 1 40.7899283794 14.2107543302 1.82868685064
2322 1 42.5059945377 12.7705221207 0.785828959914
2800 1 42.4296033605 15.64595222 0.738519041346
2830 1 43.6640340697 14.3067119044 2.42560313137
2798 1 41.8443894844 15.628826262 3.57189379131
2320 1 41.8216626524 12.8294325287 3.61143736784
7259 1 45.3910660444 12.3483405782 1.72031314032
6780 2 45.7592554004 14.42145456 1.0763984155
7290 1 47.8961371048 14.0979067556 1.91252643954
6811 1 49.7039587549 12.7783925117 3.05156792707
6813 1 49.0166021569 12.8748377988 0.178954506882
7289 1 49.7492636241 15.6289328793 2.96672319685
7323 1 50.7215115965 14.2363671914 1.32598929701
7291 1 49.0389580225 15.7073526513 0.342015405426
6844 1 52.5484808817 12.9011821447 2.38830696013
6876 1 55.2546177353 12.8772593191 1.68737602632
7322 2 52.4575542756 15.7072677672 2.33630198298
7355 1 53.5631936564 14.2972506167 0.657154541847
7353 1 54.2360920504 14.3115478094 3.40584652815
7354 1 55.2493817907 15.7368131275 1.67829469322
6909 1 57.9717904191 12.8610202822 0.968725342965
7386 1 56.9721185067 14.3074364477 2.69975279555
7387 1 58.001060246 15.7373520017 0.974058679853
6940 1 61.4097264082 12.8431109851 3.01371149167
6942 1 60.6829689784 12.840734552 0.25102507263
7418 2 61.411709678 15.5614043315 3.01594302442
7419 1 59.6827709906 14.2764611571 1.97489586161
7420 1 60.687222983 15.7036339052 0.249119797118
7452 1 62.4101201257 14.2624372649 1.25951908376
6973 1 64.1422513922 12.8495478999 2.29975519052
7451 1 64.1072892827 15.6998396193 2.28983904586
7484 1 65.0975176463 14.2533136362 0.549287362125
7482 1 65.8629202506 14.2916720311 3.30701099261
7005 1 66.8454115902 12.850756557 1.5811696432
7038 1 69.5630450858 12.8410208323 0.878626816639
7483 2 66.8073715457 15.6795518102 1.44541309212
7515 1 68.545128301 14.2755210981 2.6121635504
7516 1 69.5520083145 15.668527302 0.874083573807
7069 1 73.0352686416 12.8223809803 2.91701414103
7547 1 73.0342117024 15.6635545584 2.92332300265
7548 1 71.291420875 14.2548659831 1.8970601702
6910 1 72.3112446512 12.8262402305 0.15221596526
7388 1 72.3096891049 15.6639908628 0.153665788949
7514 1 70.2745850077 15.6692140446 3.63781380795
7036 1 70.2829798784 12.8388192425 3.62695142619
7101 1 75.783014136 12.8165122736 2.2010493543
7579 1 75.780268875 15.6660268101 2.21464147899
7580 1 74.046573177 14.2425489954 1.18026951154
7610 1 76.7855394763 14.2500071473 0.470956681736
7608 1 77.519314428 14.2437328825 3.23942037831
7131 1 78.5160551138 12.823806133 1.49028999779
7609 1 78.5298149464 15.6762041855 1.50752219167
7630 1 80.2673003541 14.2533651571 2.52955749374
7153 1 81.2335486952 12.8250555589 0.77736627464
7631 1 81.2785114359 15.6899923762 0.801195975484
7643 1 82.9947479273 14.2445735164 1.81183617434
7164 1 84.7619764193 12.8365214649 2.8771653253
7629 1 82.0380306876 15.6861611261 3.54977603857
7151 1 82.00128292 12.8266474824 3.55072686832
7642 1 84.7402405791 15.6226741518 2.81550356511
7517 1 83.9971105265 15.678686106 0.0734409891681
7039 1 83.9407043006 12.8285766941 0.0660476488062
7169 1 87.3872950532 12.748464099 2.08549170321
7647 1 87.3999705245 15.6376924421 2.08820826129
7648 1 85.7170664406 14.2088153816 1.08388192644
2393 1 88.4910916748 14.2323393218 0.391141741873
2870 2 1.12212619969 18.7367551236 1.83087785083
2881 1 2.65846488443 17.0374163783 0.742382649669
3359 1 2.77292735318 19.8342833392 0.473247812822
2879 1 2.18888632903 17.2159180044 3.48247472104
3348 1 2.12072038606 20.264488663 3.23488303632
2880 1 3.76762328032 18.5804601031 2.25297615941
2897 1 6.47602159428 18.5713361508 3.03852416763
2898 1 5.48533563636 17.1399583071 1.29899539076
3376 1 5.55632859957 19.9873823027 1.2341462463
2899 1 7.30092090668 18.5663666298 0.271492068284
2924 1 8.27479179155 17.1559497974 2.03094732306
2925 1 10.0505843799 18.5741416468 1.02824179108
3402 1 8.27275234732 20.0020081369 2.02894408709
3433 1 11.0643218775 20.0004873439 2.75848819807
2955 1 11.0683724454 17.144941482 2.76122746883
2956 1 12.8185421991 18.5725388116 1.75782185003
2987 1 13.8359696633 17.1452142595 3.4939822817
2989 1 14.5667157999 17.1435083022 0.74966223291
3465 1 13.8333265059 20.0027434616 3.49021627473
3467 1 14.5635607022 20.0005644572 0.747624169522
3435 1 11.8127162632 19.9994056615 0.0212898261551
2957 1 11.81320843 17.1454355075 0.0211992346199
2988 1 15.575941163 18.5729775069 2.48496596005
3019 1 18.3249208636 18.5722259593 3.21174819427
3020 1 17.3153327041 17.1410629922 1.47582499793
3498 1 17.3111751304 20.0031736427 1.4725526729
3021 1 19.0510469206 18.5701840304 0.461224563269
3052 1 20.0626246991 17.1386434359 2.20266243663
3053 1 21.7999628224 18.5672996074 1.18973519329
3530 1 20.0591060857 20.0008889317 2.19879486629
3083 1 22.8118880492 17.134464996 2.93335035656
3084 1 24.5505299578 18.5616009467 1.92304773711
3561 1 22.8078235053 19.9944803988 2.92968403292
3085 1 23.5408336127 17.1367235255 0.181038096144
3563 1 23.5385562777 19.9953594126 0.177378400153
3593 1 25.555274851 19.9839171494 3.66678448384
3115 1 25.5649002237 17.1275873401 3.67229272951
3116 1 27.2996968072 18.551612105 2.66242961063
3117 1 26.2905472771 17.1324302244 0.915381932926
3149 1 29.0364832973 17.1260912976 1.64941690587
3595 1 26.2891383456 19.9902531769 0.910139634711
3627 1 29.0288314398 19.984347022 1.64452676507
3148 1 30.0436295974 18.5489440103 3.39397765583
3150 1 30.7631124703 18.5569841732 0.625173095917
3181 1 31.7760059745 17.122816634 2.36977959265
3659 1 31.7691389957 19.97990855 2.3650232104
3182 1 33.5037225744 18.5524881316 1.34261209163
3212 1 34.5148223022 17.1100991648 3.09089892921
3213 1 36.2528281849 18.5323113174 2.06993373755
3690 1 34.5134284386 19.9681206855 3.07941462212
3214 1 35.2433997698 17.1199440958 0.333135053851
3692 1 35.2353927694 19.9835281585 0.324385098089
3244 1 39.0353405306 18.5189165567 2.80206407239
3245 1 38.0086924924 17.1059521726 1.07272398536
3723 1 37.9946122826 19.9534008036 1.06766736161
3246 1 39.7566826125 18.5502267816 0.0671270602646
3277 1 40.7913143946 17.1066574372 1.79561268401
3755 1 40.81633763 19.9486695894 1.77239449312
3278 1 42.5950994163 18.5917647101 0.713903673398
3276 1 41.7492397716 18.4727106572 3.57682258084
3786 2 43.3879390355 19.9222000548 2.62418327396
3308 1 43.4370563046 17.1067910004 2.4654897052
7737 1 45.6710801743 16.5494896137 2.26972675132
7735 1 45.4710047684 18.8508704472 1.3937111181
7734 1 46.9387557867 18.9392854561 3.51476957837
7651 2 46.9653959774 17.247335226 0.220278805331
7768 1 48.0436349685 17.1024963862 2.1961480325
7767 1 49.7433744005 18.5977793743 3.00036706804
7801 1 50.6591796479 17.2201313802 1.27878670033
8279 1 50.6995047836 19.9845309146 1.19382817315
7769 1 48.3042492651 19.2278086786 1.111694272
7800 1 52.4350596146 18.5922158319 2.3304889059
7832 1 55.210040785 18.5751912436 1.66754530679
7833 1 53.5158075451 17.1600928489 0.657280725231
8311 1 53.4645698835 20.0070292896 0.613724850289
7831 1 54.1833704163 17.1546093917 3.38312371978
8309 1 54.1609525278 20.001528213 3.38175835991
7864 1 56.9739811063 17.1584952032 2.68758052259
7865 1 58.0000339557 18.5552696988 0.952558269201
8342 1 56.9539121923 19.9775522741 2.67615819278
7863 1 58.7144819037 18.5616433435 3.68986195687
7896 2 61.4447628579 18.6917037028 3.13693529514
7897 1 59.7567008605 17.1583447128 1.98698462007
7898 2 60.6485625923 18.5449712491 0.108144884734
7930 1 62.3568200905 17.1371732582 1.30953616744
8375 1 59.708482724 19.9745542648 1.94722414689
8408 1 62.3895203951 19.9525392764 1.2500903821
7929 1 64.1031632587 18.5159482504 2.29723122487
7962 1 65.0842094716 17.1196266348 0.552329016276
8440 1 65.1016250094 19.9397021339 0.546534538758
7960 1 65.8526732812 17.0815496068 3.30249188196
8438 1 65.845647175 19.9356216443 3.30874377704
7961 1 66.8384040012 18.5032219943 1.57576408711
7993 1 68.542066942 17.0710408093 2.61140074926
7994 1 69.5580608146 18.4977176411 0.877737180983
8471 1 68.5578988095 19.9308060108 2.60489201359
8025 1 73.0280859649 18.5070189994 2.92270488955
8026 1 71.2885560832 17.0786698568 1.89800331719
8504 1 71.2962646409 19.9310118871 1.8936487447
7866 1 72.3041723198 18.5030788909 0.155329309767
7992 1 70.2779289777 18.5006547105 3.62783651979
8057 1 75.7748188847 18.5081367783 2.21445913434
8058 1 74.040733534 17.0857840467 1.18524788466
8088 1 76.785085978 17.0903379044 0.47630607474
8536 1 74.0365425367 19.9296665434 1.1821514963
8566 1 76.7788986214 19.9277400629 0.47161134689
8086 1 77.5198662261 17.0889765261 3.24397165984
8564 1 77.5115023698 19.9274691701 3.24014268671
8087 1 78.5278755356 18.5118249782 1.50612918244
8108 1 80.2888192192 17.105002635 2.53444732382
8586 1 80.2836493057 19.9222363566 2.52938965698
8109 1 81.2943358583 18.517346996 0.792109117045
8121 1 83.0528113432 17.1162969853 1.83400285313
8599 1 83.0640572776 19.9296406179 1.82955239552
8107 1 82.0704447536 18.518680867 3.55755616319
8120 1 84.8974827715 18.5917690471 2.91383201446
7995 2 83.9852863454 18.5059899016 0.0557513634987
2871 1 88.3925214172 17.0860062536 0.442175939581
8125 1 87.3632894803 18.5948331189 2.11240933697
8126 1 85.7202385177 17.0989847475 1.1123153527
8604 1 85.7878284031 20.0432894634 1.15151630037
3349 1 88.5018034513 20.0130958369 0.300921959828
3837 1 1.82661445225 22.0156347815 1.10512253936
3826 2 0.280058927455 23.772870099 0.64013200525
3835 2 2.40437343952 22.8581643617 3.28148494849
3358 1 3.9486403967 21.4209908771 2.17097987752
3375 1 6.47830507096 21.4249365531 3.05207741968
3836 1 3.75949003125 24.063049501 1.80878789115
3853 1 6.42145193624 24.3651646956 3.0071624419
3854 1 5.68448909394 22.8540284231 1.22836388549
3377 1 7.32404221833 21.419890408 0.250819265599
3855 1 7.31302264188 24.320782273 0.219481983154
3403 1 10.0488069051 21.431382442 1.02668557781
3880 1 8.26470322841 22.8752197129 2.01797809711
3881 1 10.0725862822 24.2766726338 1.01028773505
3911 1 11.0692290664 22.8599337215 2.75241489329
3434 1 12.8171222767 21.4296029962 1.75596875346
3912 1 12.8015782095 24.3025706158 1.75394733807
3943 1 13.8236817889 22.8706491581 3.48676159979
3945 1 14.554166218 22.8661134762 0.746415207403
3913 1 11.8208421773 22.8539076165 0.0158254245082
3466 1 15.569008197 21.4359746462 2.48249844681
3497 1 18.3191496992 21.4354122225 3.20883923476
3944 1 15.557909512 24.3006556327 2.48443325384
3975 1 18.3110294307 24.2977787897 3.20877532987
3976 1 17.3023498225 22.867365939 1.47032117333
3499 1 19.0439503033 21.4329778884 0.457790085384
3531 1 21.794070426 21.4278910932 1.18662158439
3977 1 19.0328981764 24.297941417 0.452224631333
4008 1 20.0513303902 22.8642790622 2.19473693766
4009 1 21.7853472459 24.290475672 1.18243435223
3562 1 24.5438971958 21.4198029885 1.91942371229
4039 1 22.8006483007 22.8555218774 2.9265566254
4040 1 24.5377436678 24.2778603695 1.91762334994