ITEM: TIMESTEP
6000
ITEM: NUMBER OF ATOMS
9560
ITEM: BOX BOUNDS pp pp pp
0.0 88.6430375159
0.0 28.55
0.0 44.3215187579
ITEM: ATOMS id type x y z
2 1 1.03777678917 1.2925147641 1.79236575549
491 1 2.83544372808 2.6833127092 0.74604584371
489 1 2.37984113414 2.75405120627 3.37467734077
1 1 0.102164201891 2.77673251072 3.43159672355
13 1 3.67661717291 0.466363152429 0.532429669127
11 1 2.75094114139 0.0992692404021 2.84502037476
12 2 4.31482287685 1.6800920106 2.49595546894
29 1 6.72581583194 1.48796384468 3.0731442647
508 1 5.59877021214 2.78185576766 1.0479324457
31 1 7.42798909746 1.40352829867 0.300711116032
57 1 10.1273661763 1.46393457298 1.02854902538
534 1 8.36871507844 2.89909886612 2.00504885183
56 1 8.39942813213 0.0109385406854 2.0743400132
565 1 11.1319403466 2.92181981503 2.77413984291
88 1 12.8616664421 1.47428372452 1.74947140349
597 1 13.838001312 2.92497556002 3.5049215324
599 1 14.5830690436 2.89981106883 0.723175881447
121 1 14.5784479659 0.0373769939406 0.724443330755
119 1 13.8387099051 0.0449645735446 3.50013955696
87 1 11.1215908955 0.0431223261439 2.77830182558
89 1 11.8736512864 0.0437062155988 0.00814255034704
567 1 11.8775914119 2.88361987299 0.00138650183383
120 1 15.5612327358 1.47410845291 2.46568777673
151 1 18.300400336 1.4657816918 3.1950540011
630 1 17.29159382 2.88511207167 1.44026467145
152 1 17.2860031334 0.0480241904445 1.4420913615
153 1 19.0227737854 1.46291474835 0.431175162607
185 1 21.7734479892 1.46187289924 1.171886156
662 1 20.0366041647 2.8895947563 2.18114748042
184 1 20.0337988614 0.038451227738 2.18299662455
216 1 24.5118882208 1.46090023917 1.9008524267
693 1 22.7736637243 2.89316313304 2.91584075198
695 1 23.5097747344 2.88814771803 0.157913084367
725 1 25.5057934495 2.89631581618 3.64598266128
217 1 23.511443212 0.0325676470177 0.158413372106
215 1 22.7754384718 0.0358904845354 2.91688274882
247 1 25.5088215931 0.0364865632816 3.6480601704
248 1 27.2366222065 1.46563100731 2.63294325642
727 1 26.2427661814 2.88882851302 0.884701312656
759 1 28.9657070933 2.89185187574 1.61501083889
281 1 28.9497244226 0.0486962527721 1.6287552961
249 1 26.2552170151 0.0266109840592 0.884363274205
280 1 29.964265691 1.46755884264 3.36005033013
282 1 30.6854394748 1.45374310574 0.602984744113
791 1 31.6890008116 2.89281020651 2.33703769054
313 1 31.6951814516 0.0497035949693 2.35807273243
314 1 33.3976933971 1.44969793889 1.31041192599
345 1 36.1435351136 1.4542316548 2.04598276767
822 1 34.414942563 2.88976379968 3.05464316259
824 1 35.1362402765 2.88013320451 0.313990650969
344 1 34.4002364139 0.0301027485304 3.05029812445
346 1 35.1209239505 0.0195566336923 0.301947920187
376 1 38.837012728 1.44006014875 2.83916419431
855 1 37.878844122 2.88192040325 1.0441678618
378 1 39.6252035144 1.47470205745 0.0934214575349
887 2 40.4024229568 2.88808513291 1.9562245215
409 1 40.5799046461 0.039262536207 1.90687141886
377 1 37.8958412995 0.0406884645753 1.04586924726
410 1 42.4026602725 1.38304525826 1.11418236377
918 1 43.8441871081 2.83198041762 2.75791963032
440 1 43.7145983834 0.0649655744451 2.83124364056
408 1 41.7705588352 1.50442755393 3.52230282214
4866 2 45.9070357957 1.37510175522 2.81123872152
5344 1 48.002914148 2.4400949653 2.27492441597
4899 1 49.8464140741 1.36330911198 3.17969659774
5411 1 50.6173562042 2.83045535077 1.33944547128
4901 1 49.0344870864 1.09245848296 0.385264333078
5347 2 48.2923684909 3.18889491958 0.0873380561809
4932 1 52.5251516777 1.41843323421 2.43527926033
4964 1 55.290028772 1.37933525299 1.72335689075
5443 1 53.545381309 2.80794471909 0.686937468271
5441 1 54.2857794375 2.78764907744 3.4622770381
4997 1 58.0034128845 1.36037635335 0.990646551649
5474 1 57.0175622388 2.78615595017 2.73456322347
5028 1 61.4416922118 1.36368971534 3.02396863597
5030 1 60.7158690224 1.35658090451 0.26163118352
5507 1 59.7225610609 2.78243652426 2.01011890959
5540 1 62.4262091459 2.79069509281 1.28504131901
5061 1 64.1474904379 1.36561434817 2.31032496316
5572 1 65.1378758181 2.80144077402 0.561245217763
5570 1 65.8713567513 2.79925850684 3.33421807963
5093 1 66.8679319318 1.37790279959 1.58593968185
5126 1 69.5950838579 1.38739294319 0.866055117067
5603 1 68.5965946565 2.80894277593 2.61155324621
5157 1 73.0499031272 1.38915027916 2.91738685825
5636 1 71.3249123539 2.81894809509 1.88941170242
4998 1 72.3203910424 1.39328338202 0.148802091064
5124 1 70.3251365154 1.38651469105 3.63786227007
5189 1 75.7729372781 1.39108980721 2.20374555913
5668 1 74.0470319557 2.82691751038 1.17007688056
5698 1 76.7707040444 2.8308559287 0.462137284226
5696 1 77.4977626107 2.82126127862 3.23205918452
5219 1 78.5010365577 1.39660394556 1.49574304665
5718 1 80.2306448544 2.82509189762 2.52457785878
5241 1 81.2259233903 1.41170981201 0.780252507951
5731 1 82.9718362803 2.81477705905 1.81126154285
5239 1 81.9667400975 1.39140085367 3.55516018782
5252 1 84.7186396942 1.3611845546 2.85479887857
5127 1 83.938576535 1.40447442213 0.0325568698464
5257 2 87.1715806398 1.56986352586 2.03086725344
5736 1 85.5626455054 2.87422217453 1.10979823766
481 1 88.4422104469 2.87569217727 0.406591276824
480 1 1.28506901321 4.21427646011 1.73000215322
958 1 1.2348252138 7.17872925502 1.6353442382
969 1 2.82602817323 5.74296602454 0.557997095207
967 2 2.46261501032 5.65467991377 3.28244271037
479 1 0.213056520407 5.59788075211 3.3040535381
490 1 4.01384013456 4.26779504316 2.25724579291
968 1 3.88527096843 7.22295619538 2.34924229295
507 1 6.67484847252 4.36918598623 2.98198712482
985 1 6.63821507253 7.13566986721 3.00283760517
986 1 5.60009486654 5.73361109086 1.21138280429
509 1 7.35232205863 4.31647521122 0.260613615043
987 1 7.35097691558 7.11285654626 0.203211384061
535 1 10.1258205333 4.31342496523 1.00922998072
1012 1 8.39197456883 5.75501146398 1.98798579707
1013 1 10.1155291 7.16297003968 0.995967955396
1043 1 11.1166364145 5.75873051567 2.76566073148
566 1 12.856216439 4.33726005546 1.75648967696
1044 1 12.8511479401 7.1709826403 1.75750312753
1075 1 13.8539562111 5.76577994333 3.50761216147
1077 1 14.5884442703 5.7572568991 0.736324966331
598 1 15.5792832182 4.33245069734 2.47721014298
629 1 18.3077687342 4.32031249723 3.19417964563
1076 1 15.5951683638 7.19469399477 2.49345656985
1107 1 18.315603329 7.20071592082 3.20137722838
1108 1 17.3143313185 5.75811957441 1.46146975075
631 1 19.0337136944 4.3153731473 0.438060718056
663 1 21.7724603901 4.31968746419 1.17213123761
1109 1 19.0459932295 7.17872683036 0.439653982882
1140 1 20.0374020425 5.75426347313 2.18516160434
1141 1 21.7742097075 7.17741985212 1.16888438663
694 1 24.5053924394 4.3223025769 1.90151673062
1171 1 22.7672761454 5.75589400139 2.91815900808
1172 1 24.5035841493 7.18087662611 1.90085361449
1173 1 23.5069569496 5.74724706447 0.155809783356
1203 1 25.5052285437 5.7548929762 3.6449629177
726 1 27.2363750142 4.32495470943 2.62918714451
1204 1 27.2374127535 7.18394092628 2.62779469631
1205 1 26.2365419652 5.75174312071 0.884837705732
1237 1 28.9647057362 5.75703361645 1.61240428634
758 1 29.9679624436 4.32811340794 3.35437447754
760 1 30.6882306635 4.32802400465 0.599555017441
1236 1 29.9717558125 7.18691927355 3.35155764322
1238 1 30.6931877836 7.19022651528 0.593003314441
1269 1 31.697192663 5.7595915889 2.33444024636
792 1 33.4166584407 4.32443315691 1.31905859147
823 1 36.1527343279 4.32185614586 2.04573152784
1270 1 33.4280529862 7.19231569752 1.31188991743
1300 1 34.4295042448 5.76078814381 3.05138438156
1301 1 36.1722042851 7.1894011359 2.02609631915
1302 1 35.1495575885 5.75874321322 0.308274202023
854 1 38.8158485934 4.32625020144 2.80480336827
1332 1 38.8707514658 7.19581882745 2.76879879815
1333 1 37.9051295143 5.73058346238 1.01611353109
1334 1 39.5910013151 7.1935747894 0.018745175582
1365 1 40.5306601833 5.6759811399 1.76796042347
886 1 41.693243234 4.24031028589 3.49924305599
1396 1 42.2480647347 4.19530623045 0.977736368119
1364 1 41.4447255232 7.1814969734 3.39622422842
1366 1 42.1965802954 7.12198286968 0.82570898315
6217 1 43.3719704773 5.72670288333 2.60899749069
6302 2 44.7360266276 7.47395287343 1.52819558178
5346 2 44.9060570539 4.31440137923 1.30014678949
5824 2 47.5199024667 4.42811338142 3.25411140995
5379 2 47.5429539804 6.19002698218 0.113912004578
5739 1 48.1599461414 6.286151986 2.29653907364
5377 1 49.8474151745 4.24002924973 3.19363159638
5855 1 50.0746286713 7.12994566682 3.20149626347
5889 1 50.853056879 5.59204188046 1.45680952418
5857 1 49.4268682181 7.20454765761 0.51338150059
5410 1 52.5212500743 4.16098388396 2.42994936089
5442 1 55.2824571459 4.21245162344 1.70387798471
5888 1 52.5768975649 7.05355572436 2.43336692571
5920 1 55.2759140511 7.04144172966 1.70645984601
5921 1 53.532287241 5.61283089296 0.685440802845
5919 1 54.2756687014 5.60368469614 3.45484089033
5475 1 57.9970686472 4.22023989423 0.976675418494
5952 1 57.0078032695 5.63247432943 2.72687651898
5953 1 57.9813225566 7.07269605287 0.968505791879
5506 1 61.4346975539 4.21578156309 3.03181625138
5508 1 60.7027980719 4.22379846318 0.256560716847
5984 1 61.4270404438 7.07917370414 3.02892774524
5985 1 59.7104571633 5.64725371963 2.00445930582
5986 1 60.6816684343 7.08485706439 0.254616181457
6018 1 62.4169485895 5.6543799239 1.28270000709
5539 1 64.1441767736 4.22405776045 2.3094372327
6017 1 64.1426275754 7.0803545119 2.3059039539
6050 1 65.1356616107 5.65583583993 0.561213273248
6048 1 65.869405023 5.65368950511 3.33385817748
5571 1 66.8650367674 4.23038319207 1.5870264965
5604 1 69.5956745349 4.23938501926 0.863056528143
6049 1 66.8649270055 7.08172606483 1.58503689575
6081 1 68.5945541884 5.65758425402 2.61045184853
6082 1 69.5951434339 7.08265731155 0.861307665174
5635 1 73.0528199814 4.24609606212 2.91371103207
6113 1 73.0512005194 7.09022640191 2.90969701847
6114 1 71.3264785215 5.66440465235 1.88366750104
5476 1 72.3200262474 4.24149855649 0.152339574905
5954 1 72.3212526829 7.09442002605 0.148759363126
5602 1 70.3234613027 4.23853692526 3.63891931279
6080 1 70.3219897941 7.08312997205 3.63627310215
5667 1 75.7743551904 4.25352965706 2.19845809883
6145 1 75.7794565814 7.10517200604 2.1849038042
6146 1 74.0512064248 5.67467650816 1.1680786635
6176 1 76.7747630031 5.68268046193 0.451668403057
6174 1 77.5033265932 5.68477400024 3.22628191739
5697 1 78.5057061658 4.26031637054 1.49008435105
6175 1 78.5177793278 7.11551069862 1.4703394984
6196 1 80.2441019102 5.69061642494 2.51381490735
5719 1 81.2309450183 4.24986900569 0.775916966988
6197 1 81.2467889238 7.12860637317 0.752712650717
5730 1 84.6421216758 4.25804718475 2.89534477565
6208 1 84.6712253369 7.11568470481 2.85511091887
6209 1 82.9429208532 5.68105055688 1.810639339
6195 1 81.9799687085 7.13330057556 3.5403643104
5717 1 81.9650851329 4.24473307397 3.55546732782
5605 1 83.9202558076 4.26573772362 0.0333076779222
6083 1 83.9325378153 7.07922432013 0.0581410344174
5735 1 87.3331441438 4.26150255665 2.11462586478
6213 1 87.3920393555 7.07281385925 2.18018069512
6214 1 85.6091766187 5.63484990229 1.16875753016
959 1 88.5513147211 5.64374756424 0.222266858151
1437 2 88.1793672069 8.15164880455 0.230783663387
1436 1 3.06630922089 8.62766916113 0.668858969497
1925 1 2.93051756927 11.4684458099 0.768373420055
1923 2 2.69001422713 11.4622927083 3.21426222117
1445 1 1.77947702577 9.33529936603 2.73200737434
1915 1 0.544237813375 11.5356752515 2.54478883612
1446 1 4.14133575714 9.95704094199 2.37338319128
1463 1 6.6298859266 10.0123772174 3.00290621367
1464 1 5.66659404892 8.52314998641 1.22961047505
1942 1 5.69010659035 11.4525244561 1.2091657799
1465 1 7.37086057901 9.98402144907 0.222903514231
1490 1 8.35676393976 8.5721787771 1.98699691257
1491 1 10.1031367873 9.99911857886 0.998142736249
1968 1 8.36329195464 11.431801874 1.99307403527
1999 1 11.1024794245 11.4289460733 2.75298598167
1521 1 11.1125394186 8.57828586892 2.76479242468
1522 1 12.8444870196 10.0121214364 1.74717102423
1553 1 13.8507909651 8.59416697969 3.50580417603
1555 1 14.5860262482 8.60046466818 0.736664806948
2031 1 13.8553354929 11.4274011281 3.49620039239
2033 1 14.5832534399 11.4412808839 0.737114356316
1554 1 15.5976953016 10.0192732045 2.48682419453
1585 2 18.3480831577 10.0276545914 3.06962959438
1586 1 17.3068658739 8.5926920812 1.44176199245
2064 1 17.3043918369 11.4596737507 1.44408305753
1587 1 19.0467000841 10.0297904845 0.437425422962
1618 1 20.0588369886 8.59553503838 2.17348325792
1619 1 21.7765861915 10.0323219415 1.1664533661
2096 1 20.0573205087 11.464855965 2.1755667508
1649 1 22.7671070936 8.61022232983 2.91640187221
1650 1 24.5060578994 10.0356595839 1.90019479672
2127 1 22.7677286326 11.4550537918 2.91819979636
2129 1 23.509404633 11.4615388959 0.152857877632
1651 1 23.5084999806 8.60533112076 0.152802285358
1681 1 25.5082060021 8.60977888075 3.64450157052
2159 1 25.5106334338 11.4627781066 3.64656075356
1682 1 27.2408295083 10.03991777 2.62752813105
1683 1 26.2372009 8.61012463914 0.882792554474
1715 1 28.9681630382 8.61540478239 1.60879942863
2161 1 26.2395432712 11.4657242335 0.88266046516
2193 1 28.9726089432 11.4701102264 1.60748360436
1714 1 29.9755508095 10.0423722476 3.35053933776
1716 1 30.6999200886 10.0456926278 0.585995690576
1747 1 31.7023845271 8.618455238 2.32897330636
2225 1 31.7059671529 11.4736659007 2.32674097045
1748 1 33.4335491061 10.0514568616 1.30317334705
1778 1 34.4375001498 8.61825301319 3.04175768508
1779 1 36.1671264187 10.0572439907 2.01589040517
2256 1 34.4355095958 11.4762876783 3.04037631312
2258 1 35.1697725446 11.4850099678 0.273018763164
1780 1 35.1615056696 8.62837831841 0.28891838742
1810 1 38.8849449875 10.0770612125 2.73927140661
1811 1 37.8976178779 8.64311765854 1.00403797981
2289 1 37.9083405839 11.4930319748 0.974047196022
1843 1 40.5581620348 8.66502391508 1.72184791511
2321 1 40.6259939371 11.5444619939 1.70447300529
1844 1 42.234058256 10.117382995 0.662037401075
2352 1 43.464897687 11.633601505 2.26706222312
1842 1 41.5731033127 10.1352780069 3.44196414441
1874 1 43.0827826578 8.67545448226 2.40308731851
5856 2 47.0218891996 9.85704144125 1.23651140455
6695 1 44.8270378894 9.92968276568 1.32468219178
6215 1 46.1868689033 10.7774877681 3.21422574173
6812 1 48.3263743614 11.4186784761 2.09353230069
6334 1 48.2468743211 8.72123920034 2.6664231755
6333 2 50.0984534555 9.89590642734 3.2964155627
6335 1 48.9827384825 9.756879696 0.111338303846
6367 1 50.9053393709 8.6305251021 1.43153630707
6845 1 50.7766007091 11.2903703855 1.31849225385
6366 1 52.6342353493 9.93415629982 2.41979512474
6398 1 55.2767267233 9.92282922838 1.70311926293
6399 1 53.5753517705 8.46763867636 0.687561643675
6877 1 53.5743101844 11.3781941528 0.668204567422
6875 1 54.3019314132 11.3684380568 3.45440943787
6397 1 54.3059823776 8.47272049929 3.45695288976
6430 1 56.9924224747 8.48970704547 2.72637761599
6431 1 57.9608771855 9.93042150918 0.977282868794
6908 1 56.9830230837 11.3694623756 2.72867296459
6462 1 61.4226391946 9.93443082738 3.02817166652
6463 1 59.6955042634 8.5071737904 2.00445685344
6464 1 60.6806004972 9.93710793637 0.258699802083
6496 1 62.4114434331 8.50801353463 1.28210605975
6941 1 59.6952794555 11.366878087 2.00695278375
6974 1 62.4121098129 11.3638673989 1.28633082773
6495 1 64.1413180443 9.9330280714 2.30540271591
6528 1 65.135092205 8.5085383911 0.560606459753
7006 1 65.1360642224 11.3600803501 0.563005348621
6526 1 65.8700648801 8.50526744237 3.33064134898
7004 1 65.8705056517 11.3592517823 3.32519124849
6527 1 66.8661262844 9.93160584688 1.58337201691
6559 1 68.5956021726 8.50649003198 2.60725022913
6560 1 69.5952824501 9.93511785476 0.859580550994
7037 1 68.5943050944 11.3573231387 2.60553537073
6591 1 73.0473546687 9.93541014659 2.9109246005
6592 1 71.3231861952 8.50824305196 1.88364372947
7070 1 71.3212416334 11.360151015 1.88545593515
6432 1 72.3242676841 9.93839725852 0.138390993867
6558 1 70.3205963239 9.92999635369 3.63509161345
6623 1 75.7785266471 9.94152129321 2.18321938861
6624 1 74.050494395 8.51544949459 1.15673730493
6654 1 76.7957604806 8.53677886122 0.425151386366
7102 1 74.0505990498 11.3630730802 1.16145293558
7132 1 76.7955193182 11.3579739369 0.422635875928
6652 1 77.5070689574 8.52823274979 3.21643352428
7130 1 77.5024568376 11.3584956476 3.21275381752
6653 1 78.525725389 9.9544277435 1.45284492013
6674 1 80.2533732349 8.54469835584 2.49940818221
7152 1 80.2598384439 11.375964243 2.49323932154
6675 1 81.2625184714 9.97188044867 0.735691938098
6686 1 84.7873597469 9.99130582395 2.80483909032
6687 1 82.9942559858 8.56555450194 1.78167549808
7165 1 83.0321570253 11.3889226425 1.78528340143
6673 1 81.9999075329 9.97410529013 3.52870110555
6561 1 84.0340590878 9.98156168803 0.0144188495107
6691 1 87.6236008902 9.62669298556 2.13604528765
6692 1 85.6557557929 8.50734465106 1.09897911181
7170 1 85.7595342729 11.4106640993 1.0617579981
7103 2 87.9608950451 11.3231290829 0.672956648392
1914 1 0.763299087522 13.2180521117 0.674935177411
2392 1 1.06920034856 15.453584437 1.81933887736
2401 1 1.85050207287 13.8207879483 3.20505574145
2403 1 2.86818229028 14.2931937397 0.520566461683
2402 1 3.68424202326 15.723641107 2.33212724659
1924 1 4.04934414627 12.9688495507 2.28078211513
1941 1 6.63044068007 12.8617593121 3.01505475239
2419 1 6.63807661652 15.6974569066 3.03742336145
2420 1 5.64917039285 14.3316588474 1.26667424311
2421 1 7.36406680329 15.7407964548 0.285992828689
1943 1 7.37175348605 12.8853022227 0.236249501749
1969 1 10.1054394781 12.8621103732 1.00435220957
2446 1 8.37065737027 14.2860725365 2.0157260831
2447 1 10.1041765177 15.7236785667 1.02458640116
2477 1 11.1029395176 14.2854539585 2.7613088298
2000 1 12.8429681665 12.8599416696 1.74947029802
2478 1 12.8396844709 15.7190544669 1.75523900355
2509 1 13.8465043289 14.2841601662 3.49563067931
2511 1 14.5790781584 14.2918738007 0.741486668714
2479 1 11.8418462835 14.2954047957 0.00461204031603
2032 1 15.5910599846 12.8518215711 2.49282599736
2063 1 18.3101228703 12.853813678 3.20674142399
2510 1 15.578447046 15.7192643326 2.48512758751
2541 1 18.309240273 15.726828492 3.20871330734
2542 1 17.3119900199 14.294637616 1.46705381011
2065 1 19.0439524592 12.8785039678 0.441981212873
2097 1 21.7746126862 12.883432555 1.170974451
2543 1 19.0421836613 15.7332161526 0.446995756832
2574 1 20.0377141925 14.2992240365 2.19229370604
2575 1 21.7731480475 15.7361744096 1.17553727338
2128 1 24.5057465296 12.88742005 1.90284771751
2605 1 22.7679811951 14.3046669376 2.92254293381
2606 1 24.5055742936 15.7388659421 1.9047105879
2607 1 23.5077511275 14.3147588711 0.155712601336
2637 1 25.5102377641 14.3134172016 3.64998375543
2160 1 27.2435257017 12.8932299638 2.63028896565
2638 1 27.2436883834 15.7433229599 2.63284420908
2639 1 26.239847859 14.3178219824 0.884645563521
2671 1 28.9746088992 14.3216398471 1.60917121884
2192 1 29.978416292 12.8959580723 3.35402739226
2194 1 30.7037208248 12.8998241016 0.583314084243
2670 1 29.9793373831 15.7454159276 3.35841199277
2672 1 30.7054516812 15.7489603948 0.583976995258
2703 1 31.7080226559 14.3236482687 2.32797629704
2226 1 33.4388026231 12.9050335652 1.29805044075
2257 1 36.1700375236 12.908793422 2.00579465136
2704 1 33.4416305763 15.7501106768 1.29959194904
2734 1 34.4378842256 14.3241965965 3.04370017722
2735 1 36.1765502231 15.7511514766 2.01254379353
2736 1 35.1782915746 14.3356574477 0.26645748028
2288 1 38.8650304071 12.9085921132 2.71587651266
2766 1 38.8864106578 15.7405478827 2.73755330059
2767 1 37.9152594117 14.3401914562 0.964164948306
2799 1 40.568716514 14.3156330165 1.67409633741
2322 1 42.3300016694 13.0152500286 0.644260366082
2800 1 42.339380194 15.6848074553 0.532026288425
2830 1 43.3352561762 14.4135256337 2.41600539562
2798 1 41.5154902798 15.7316313934 3.48651161138
2320 1 41.6520313814 12.9794411774 3.41336956122
7259 1 46.0376650652 12.3920668696 1.30471316087
6780 1 45.8097236711 14.6678435667 2.15224170886
7256 2 47.6901880959 15.1066538585 3.57217207965
7290 1 48.2328056474 13.8902049479 1.86744681642
6811 1 49.9955316874 12.6017142757 3.16204260438
6813 1 49.0126164813 12.6177615458 0.0782635086418
7289 1 49.9936842177 15.6784060857 2.94677978109
7323 1 50.7383348866 13.9622965927 1.32986276716
7291 1 49.1293482599 15.4617240082 0.257860356169
6844 1 52.5601781935 12.7498636119 2.40079994823
6876 1 55.2505575033 12.8134747969 1.71057211754
7322 2 52.453121409 15.4780509014 2.2530273737
7355 1 53.4983989501 14.201244883 0.635141626216
7353 1 54.2272852402 14.2246138423 3.44646779239
7354 1 55.2238246829 15.6205459386 1.72524585946
6909 1 57.9689777667 12.7991569229 0.989701516412
7386 1 56.9740564426 14.2320241315 2.73413474894
7387 1 57.9878093701 15.6410271952 0.99267745726
6940 1 61.4269132061 12.7953374374 3.02585601043
6942 1 60.6918735919 12.7966560858 0.271287711427
7418 2 61.4327338123 15.6355507043 3.02696337075
7419 1 59.7004150604 14.2165997447 2.00200868688
7420 1 60.703296616 15.6407721135 0.270923071314
7452 1 62.4272657261 14.2178948672 1.28277877667
6973 1 64.1391744897 12.7896110318 2.3046327875
7451 1 64.1623126384 15.6435951353 2.2941891873
7484 1 65.1251478549 14.2006640813 0.558896642444
7482 1 65.861812309 14.1997335241 3.3323771892
7005 1 66.8667925035 12.7813523015 1.58236691986
7038 1 69.5939447987 12.7840884887 0.860647182006
7483 2 66.8695764188 15.5015411543 1.57994075354
7515 1 68.6067686237 14.1957018949 2.6106426159
7516 1 69.5687055791 15.6409760779 0.867357808277
7069 1 73.0420278953 12.7871863347 2.91114497462
7547 1 73.0385779583 15.642087323 2.90853315705
7548 1 71.3108128886 14.2169392691 1.88441158176
6910 1 72.3239955212 12.7940809449 0.139774113935
7388 1 72.3225520332 15.6400354265 0.141825768195
7514 1 70.2949807876 15.6484239936 3.61562625835
7036 1 70.3176907053 12.7818180408 3.63220222827
7101 1 75.7778291561 12.7816611218 2.18623494647
7579 1 75.7761031944 15.6405426895 2.19599945136
7580 1 74.050173271 14.2140521088 1.16771297336
7610 1 76.7827600873 14.2156287537 0.451096221598
7608 1 77.5011238892 14.2062253992 3.2161298351
7131 1 78.5109158159 12.7793604429 1.46258465997
7609 1 78.5111258414 15.6378785537 1.47962380011
7630 1 80.2310359525 14.1867234468 2.48905311555
7153 1 81.2801554787 12.8013340726 0.744581036895
7631 1 81.2597941742 15.6408448189 0.776049988011
7643 1 83.0290578131 14.2468126492 1.76672883292
7164 1 84.8078953984 12.852178147 2.80231941156
7629 1 81.9243463131 15.5713044456 3.51268043196
7151 1 82.010097166 12.7982818758 3.51875080363
7642 1 84.6838158851 15.6809800314 2.84604558974
7517 1 84.0447889594 15.8345176627 0.0654257434332
7039 1 84.0097468748 12.8103053226 0.0549587454673
7169 1 87.6611637407 13.3817834188 2.24359499867
7647 2 87.2465101223 15.8434733525 2.22312448104
7648 1 85.6758123366 14.3524512816 1.07958333271
2870 2 1.3240528303 19.0506585179 1.80102112746
2881 1 2.62270988807 17.1564036396 0.532867963208
3359 1 2.99327369299 20.0054303689 0.631686330879
2879 1 1.94171241111 17.2677860894 3.36340221872
3348 1 2.2727262418 20.1533716879 3.50019246803
2880 1 3.84066910479 18.5404983158 2.36586025914
2897 1 6.61284381302 18.5597943395 3.08984549088
2898 1 5.56019049977 17.1139991841 1.36309890494
3376 1 5.61630737879 19.9907692949 1.38526955148
2899 1 7.34081043145 18.56329848 0.331216092911
2924 1 8.3585167866 17.1453303459 2.05139145406
2925 1 10.097046043 18.57774204 1.0403755045
3402 1 8.35164521125 19.9988977908 2.07059170884
3433 1 11.0966460729 19.9964951937 2.78725293081
2955 1 11.0980929408 17.1443596028 2.77668142623
2956 1 12.8365636574 18.5752273484 1.76164400542
2987 1 13.8397344749 17.144804334 3.50126146576
2989 1 14.5746583159 17.1509641237 0.740606353442
3465 1 13.8367377093 20.001535426 3.50580530776
3467 1 14.5724787708 20.0068513257 0.741793716412
3435 1 11.8393250294 20.0035764205 0.0189120227198
2957 1 11.8399740828 17.1529453565 0.0131562702614
2988 1 15.5732706935 18.5794417322 2.4850451011
3019 1 18.308305406 18.5863581576 3.20978953189
3020 1 17.3081848796 17.1562373771 1.46554437179
3498 1 17.3064171483 20.0129686547 1.46619053729
3021 1 19.0415305866 18.5898389077 0.447297136076
3052 1 20.0415943678 17.1615504905 2.19220021826
3053 1 21.775794139 18.594499394 1.17511874804
3530 1 20.0416864934 20.0191170228 2.19223179659
3083 1 22.7735328722 17.1636743808 2.92083759658
3084 1 24.5089491905 18.5952518054 1.90399864803
3561 1 22.7776319635 20.0227360865 2.91953198174
3085 1 23.5077278855 17.1689241005 0.157959642784
3563 1 23.5111770918 20.0269610109 0.158064498692
3593 1 25.512877607 20.020258714 3.649401158
3115 1 25.5105614762 17.1654238781 3.65001237181
3116 1 27.2441851202 18.5927808061 2.63347183124
3117 1 26.240083634 17.1696089342 0.886103556114
3149 1 28.9748769967 17.1700295338 1.61094523854
3595 1 26.2438413384 20.0253574672 0.886572255983
3627 1 28.9749310267 20.0208527559 1.61333107863
3148 1 29.9786479244 18.5903137977 3.35964376936
3150 1 30.7054257837 18.5976083959 0.587493245734
3181 1 31.7087071718 17.1696478193 2.32873398479
3659 1 31.7058784773 20.0198876823 2.33235217291
3182 1 33.439086342 18.5977858651 1.3034225156
3212 1 34.4376958484 17.1683153025 3.04652019431
3213 1 36.1716253759 18.5950869637 2.01905125943
3690 1 34.4298616132 20.0197223963 3.04747512802
3214 1 35.1774410157 17.1782346358 0.27396070079
3692 1 35.1693203193 20.0303230777 0.283121300181
3244 1 38.9008413207 18.6112351355 2.73656912629
3245 1 37.9240282628 17.1765845941 0.984211366389
3723 1 37.9038306406 20.0263864756 1.00100761369
3277 1 40.5502994597 17.1689920659 1.68770157291
3755 1 40.6664955805 20.0784164377 1.7285661414
3278 1 42.3301825847 18.6263775968 0.72038650518
3276 1 41.5473398404 18.5928898316 3.50640674231
3786 1 43.3979191583 19.9474783393 2.57178191392
3308 2 42.8382196594 17.0140688462 2.19927766728
7171 1 44.2479144857 17.2544129702 0.0169928599407
8215 1 44.1450118819 19.9966347987 0.0571892829975
7737 2 45.7893382214 17.0291330809 2.06699580579
7735 1 45.9964702055 19.0432956272 1.35006052175
7734 1 47.0334872555 18.6888907873 3.61861955654
7768 1 47.9784162067 16.8320643748 2.1063111472
7767 1 49.4088689037 18.5841958575 2.98864843619
7801 2 49.8253801105 17.4693254083 0.952577554513
8279 1 50.6584493547 19.9165545107 1.35793355601
7769 1 48.3341871949 19.0579859357 0.129929784977
7800 2 52.617470998 18.6390745249 2.39220436639
7832 1 55.2304103473 18.4699134634 1.74329501916
7833 1 53.5609429337 17.0279107737 0.717968091748
8311 1 53.5500880131 19.941495244 0.697464488123
7831 1 54.1684317549 17.0210697782 3.43424508351
8309 1 54.2557986859 19.9385121296 3.45851916839
7864 1 56.9609985523 17.0510677712 2.72652777783
7865 1 57.9960053688 18.4767301438 0.997124873885
8342 1 56.9791552153 19.9036104042 2.72838725111
7896 1 61.4372525899 18.4849530569 3.00792258971
7897 1 59.7076358692 17.0576664819 2.00694555309
7898 2 60.705881717 18.4723507873 0.272542451958
7930 1 62.4445130234 17.0583851799 1.28837769331
8375 1 59.7244307265 19.9171692798 1.99611149326
8408 1 62.4374751815 19.9156397237 1.27118416209
7929 1 64.1586270616 18.482593452 2.28516211034
7962 1 65.1680694212 17.0635432116 0.579777654079
8440 1 65.1149455313 19.9365857696 0.543742578766
7960 1 65.8899116286 17.0642394471 3.28198901531
8438 1 65.860560635 19.9333369532 3.32536088548
7961 2 66.8650875777 18.632324622 1.57474592338
7993 1 68.5581703765 17.0664818817 2.58307899916
7994 1 69.5658268443 18.4912303838 0.866287055562
8471 1 68.6023753238 19.9384745631 2.60641016164
8025 1 73.0383012958 18.4936457298 2.90878170497
8026 1 71.3001930609 17.0665238862 1.87835807539
8504 1 71.3083494793 19.9197431641 1.88450249008
7866 1 72.3184776285 18.4943488495 0.14627158325
7992 1 70.293325042 18.4844694186 3.61286848257
8057 1 75.7790245145 18.4987106114 2.19802087153
8058 1 74.0484775271 17.0697814104 1.1708176336
8088 1 76.7853396834 17.0719448575 0.458556835419
8536 1 74.0485519776 19.9265200027 1.17348839649
8566 1 76.7867249978 19.9339695983 0.463104719821
8086 1 77.5068236488 17.0663896905 3.22147421877
8564 1 77.5112332008 19.9288984065 3.22295386272
8087 1 78.5183063236 18.5048884951 1.48776302746
8108 1 80.2385773793 17.0618051239 2.50304014181
8586 1 80.2619845305 19.9362094309 2.51338712443
8109 1 81.2667447975 18.5286801959 0.79492266492
8121 1 82.9655461075 17.0930171172 1.79051239132
8599 1 83.0763685861 19.8947021548 1.81001775792
8107 1 81.9496276227 18.4702364677 3.53626347236
8120 2 84.5506833474 18.2177738212 3.21394287542
2871 1 88.5686810384 17.4658540554 0.952363319923
8125 1 87.5898011017 19.6335235172 1.5725099446
8126 1 85.7447658791 17.3542163622 1.14302472373
8604 2 85.4575981838 19.8270726716 0.8175575003
3837 1 2.87401216028 22.7913748661 0.747186067832
3826 1 0.966448050155 23.8942206483 1.85097469215
3835 1 2.18761982342 22.7478011669 3.6625435659
3358 1 3.97213669233 21.4853742952 2.44764357607
3375 1 6.62461345932 21.4386796077 3.11820166022
3836 1 3.84423136802 24.2031059544 2.49557240939
3853 1 6.64511459114 24.2228088927 3.17955705458
3854 1 5.62771886152 22.9039866505 1.38143893528
3377 1 7.35695768928 21.4342009867 0.334432792034
3855 1 7.43886937208 24.2426104433 0.308532308429
3403 1 10.10276876 21.4238467644 1.04577203302
3880 1 8.37724423028 22.8425394671 2.08401287742
3881 1 10.1131888507 24.2823065405 1.04039613954
3911 1 11.1024656071 22.8505821989 2.78826991791
3434 1 12.8363245503 21.4289533418 1.76442045308
3912 1 12.8387936685 24.2880668795 1.76353597402
3943 1 13.8362118853 22.8588624548 3.50633870135
3945 1 14.5715456176 22.8627739354 0.742609028436
3913 1 11.8435848844 22.857779912 0.0191826113743
3466 1 15.5710460099 21.435856158 2.48623214469
3497 1 18.3062609848 21.4431188999 3.21032813896
3944 1 15.5689136469 24.2947387865 2.48527101765
3975 1 18.3032486161 24.3010701041 3.20864845484
3976 1 17.3036760946 22.8694561124 1.4662828385
3499 1 19.039675454 21.4456042586 0.447620803355
3531 1 21.7763611769 21.4510798238 1.17469805491
3977 1 19.0365680681 24.3011987544 0.447766404776
4008 1 20.0394609389 22.8749258511 2.19216459656
4009 1 21.7735783226 24.3054635836 1.1746636005
3562 1 24.5148690428 21.4542872155 1.90196497684
4039 1 22.7775111243 22.8780438425 2.91921084205