ITEM: TIMESTEP
10000
ITEM: NUMBER OF ATOMS
9560
ITEM: BOX BOUNDS pp pp pp
0.0 88.6430375159
0.0 28.55
0.0 44.3215187579
ITEM: ATOMS id type x y z
2 2 0.756397490516 1.00217243167 0.886411222041
491 1 2.7382549695 2.82098151488 0.410936452543
489 1 2.1312876535 3.3088646061 3.36447302492
11 1 1.85906705419 0.545277530642 3.0435653184
13 1 2.88483066306 0.141871343945 0.65838531642
12 2 3.83669975939 1.83110368105 2.25998019557
29 1 6.60425515135 1.48029647474 3.05159183282
508 1 5.64879013636 2.89583423643 1.22792131526
30 1 5.55345582348 0.0684302580333 1.38776871552
31 1 7.37454756517 1.45736513645 0.340730579996
57 1 10.1155441483 1.45691059951 1.02183319759
534 1 8.38651478056 2.88601746916 2.05549382643
56 1 8.35573962874 0.0249333073774 2.04424629965
565 1 11.117402166 2.92147993985 2.78326669868
88 1 12.8474295657 1.47188082407 1.75352207247
597 1 13.8015589452 2.94412761798 3.50134574945
599 1 14.5670548961 2.88220586424 0.721726891813
121 1 14.5807040629 0.020551070228 0.725980121422
119 1 13.8407568526 0.0309481852907 3.48371798923
87 1 11.1144652399 0.030396560242 2.75734670174
89 1 11.8647713106 0.0305088684921 0.00174709598355
120 1 15.5556056884 1.4652261364 2.46814046916
151 1 18.3155776663 1.43787049896 3.191016654
630 1 17.311662903 2.8449069543 1.43498379683
152 1 17.3009577254 0.0275673347764 1.44277979984
153 1 19.0333270331 1.42598085504 0.404379010838
185 1 21.7962432939 1.4201397773 1.15399804275
662 1 20.0537166633 2.84692055248 2.16426639592
184 1 20.0525784638 0.00734031901516 2.16538099248
216 1 24.547223973 1.4145378323 1.893991028
693 1 22.8048719459 2.84535577614 2.90252264489
695 1 23.5397280332 2.83940446848 0.146587536249
725 1 25.5493437806 2.84739024222 3.64123754094
248 1 27.2821291913 1.41678980312 2.63483172903
727 1 26.2813446157 2.84319409164 0.887542325521
759 1 29.0149530191 2.84524602419 1.62701865209
280 1 30.0161016523 1.41532425635 3.36904842292
282 1 30.7350739316 1.41075031733 0.612303357204
791 1 31.7408044242 2.84331053279 2.34909537175
314 1 33.4554001599 1.40613130589 1.32988196499
345 1 36.1669334803 1.38592440156 2.05980289529
822 1 34.4555504697 2.8358281321 3.0728094431
824 1 35.1936116278 2.83741385397 0.309428008792
376 1 38.8554942744 1.34738767241 2.81807676243
855 1 37.8678391649 2.80514624079 1.05078608233
887 2 40.3018434178 2.86389864374 1.95234496351
378 1 39.5038281912 1.32540616788 0.0450395832893
409 1 40.6816626158 0.0234758786838 1.86563404511
410 2 42.8326775684 1.23154669729 1.37078600057
918 1 43.8101116115 2.86455606959 2.96754107182
408 1 41.7384112822 1.42245392959 3.52673692688
1396 1 42.3061851795 3.90841753981 0.790180093942
4866 2 45.856535588 1.27850855701 2.8505309217
5344 1 47.9054102458 2.41848961941 2.50187016703
5378 1 46.1782604882 1.64413001251 0.535953191698
5346 2 44.8874152218 3.79089675538 0.876423571047
4899 1 49.7841852036 1.36867417428 3.25396028848
5411 1 50.4881356433 2.91781534254 1.41365276943
4901 1 48.96457596 1.03253202669 0.542398191
4933 1 50.8173914122 0.0354728436915 1.40084165185
5347 2 48.1703904792 3.01495417941 0.23791434821
4932 1 52.4170804918 1.48511188847 2.44759793875
4964 1 55.1814602888 1.43579354382 1.72012591624
5443 1 53.4208823844 2.87797014291 0.701088964973
5441 1 54.1562970558 2.86599673317 3.46555793931
4965 1 53.4625758201 0.0147079835397 0.685887499468
4963 1 54.1843527588 0.0199277663137 3.46607402301
4997 1 57.9369281758 1.41721774905 1.00246109651
5474 1 56.9173254175 2.84716236745 2.73802630201
5028 1 61.3943100604 1.42843207075 3.02608621538
5030 1 60.6752392774 1.41018140673 0.283862212257
5507 1 59.6632092469 2.84422275829 2.01953955306
5540 1 62.3965827388 2.84390820688 1.3003790727
5061 1 64.1125198249 1.41116792272 2.3257642815
5572 1 65.1246569372 2.84423556174 0.578598600321
5570 1 65.8479638992 2.84165565727 3.34411411968
5093 1 66.8536663225 1.42107095749 1.59781965246
5126 1 69.5937678732 1.43242163728 0.876841486228
5603 1 68.5875569809 2.8524784539 2.62053264628
5157 1 73.0422173534 1.43379844406 2.92391140405
5636 1 71.3280867274 2.86833017659 1.89876363301
4998 1 72.3198489907 1.43754259453 0.159616968282
5124 1 70.3155482387 1.42780214287 3.64111709908
5189 1 75.7580645923 1.43627814595 2.21109276507
5668 1 74.0444163146 2.86908160759 1.18525562273
5698 1 76.7590032085 2.87139522376 0.471746523984
5696 1 77.482788662 2.87142778113 3.23814623378
5219 1 78.4779645331 1.42831262313 1.50534244009
5718 1 80.2112785718 2.85573045098 2.53603546627
5241 1 81.2002642702 1.41290510739 0.80884450148
5731 1 82.9346707351 2.84147351937 1.83382758192
5239 1 81.9506458166 1.41610876653 3.57576369449
5252 1 84.5872228158 1.40218074686 2.90778432417
5127 1 83.9329522319 1.40323116138 0.167134556164
1 1 88.5791476563 2.7744764626 2.48095131539
5257 2 86.8221364014 1.36749339767 2.87211611405
5736 1 85.8032312044 2.85982421303 1.21854911555
481 1 88.5041805224 3.05512561727 0.00901741192333
480 1 1.27038409898 4.535331602 1.33549124086
958 1 1.25683505528 7.1523073803 1.44297397663
969 1 2.95279029166 5.82059991242 0.384299572385
967 2 2.4417366293 5.73006778198 3.17887405624
479 1 0.131119924497 5.35099905509 3.27137415419
490 1 3.95894884401 4.36955028122 2.14400352631
968 1 3.94246341729 7.27371263737 2.28432764791
507 1 6.68824462562 4.33523149957 3.0019771638
985 1 6.69688769693 7.19248203559 3.01339757786
986 1 5.6984310409 5.75387885591 1.24611092063
987 1 7.43177985054 7.16465718141 0.249586630172
509 1 7.40398247354 4.28629470668 0.258700780217
535 1 10.1011278319 4.25887053493 0.974367339828
1012 1 8.41281894083 5.72666354645 2.01165916995
1013 1 10.0994267228 7.17461279387 0.957741021561
1043 2 11.00310131 5.73063982531 2.56738289429
566 1 12.8324534564 4.3104504817 1.74884755694
1044 1 12.842507707 7.12701938847 1.74221084854
1075 2 14.0221590175 5.71753935938 3.37812770561
1077 1 14.5797868044 5.7204981333 0.735529171837
598 1 15.6091331464 4.2689566926 2.44780950229
629 1 18.3177517596 4.27823258535 3.18779138881
1076 1 15.6176849508 7.16080496416 2.45810525724
1107 1 18.3210754305 7.13577052813 3.20176898238
1108 1 17.3390558076 5.71108925219 1.44623881346
631 1 19.0447723207 4.26026705433 0.408457445443
663 1 21.7945314327 4.26666659512 1.15379914718
1109 1 19.0625617076 7.12597157763 0.422847651014
1140 1 20.0550696432 5.69627805574 2.16831515547
1141 1 21.7946915764 7.12122779508 1.15757642121
694 1 24.5414479332 4.27110193171 1.89427098675
1171 1 22.8000520588 5.69775129387 2.90349609061
1172 1 24.5381818028 7.12331976336 1.89397283412
1173 1 23.5347473255 5.6932508406 0.146351915632
1203 1 25.5495657556 5.7013380245 3.63989815403
726 1 27.2871419698 4.27780113887 2.63568137718
1204 1 27.2901311167 7.12797620127 2.63443571306
1205 1 26.2784706823 5.6994910092 0.887385483988
1237 1 29.0252450713 5.70777724805 1.63111394202
758 1 30.0275608265 4.2804291608 3.3767437541
760 1 30.737120304 4.2696198308 0.602586317368
1236 1 30.0672850904 7.13317366898 3.38056188522
1238 1 30.753254919 7.14116492576 0.620057881641
1269 1 31.7363511788 5.67851936939 2.31916437278
792 1 33.4747686667 4.26206902635 1.3195300364
823 1 36.1993985199 4.25861347999 2.05944073734
1270 1 33.4853043625 7.12688751447 1.33988864317
1300 1 34.4995982545 5.67715876376 3.05281501849
1301 1 36.2045890818 7.14076066955 2.06432122758
1302 1 35.2223526641 5.69140791647 0.312752785612
854 1 38.8161621659 4.29502189359 2.82880023611
1332 1 38.9643421339 7.10374312689 2.79169614914
1333 1 37.9171144851 5.69463988553 1.03979917194
856 1 39.6105564631 4.17778775729 0.109921631227
1334 1 39.6574446141 7.10789146934 0.0529935168824
1365 1 40.6635560467 5.59212980167 1.76617259104
886 1 41.6511799673 4.14348986294 3.4105199787
1364 1 41.6521159655 7.05479173184 3.42563582875
1366 1 42.4022122433 6.96941183199 0.782172592349
6217 1 43.4721452686 5.39649232796 2.40239683428
6302 2 44.8201513693 6.92799970795 1.12594585009
5824 2 47.1075498534 4.39962989882 3.34655648577
5379 2 48.0364574199 5.87588881238 0.0443417570422
5739 1 48.0730590443 6.10241634436 2.33866807759
5377 1 49.635398342 4.30487653244 3.28649331898
5855 1 49.8193817981 7.20614515973 3.26944115088
5889 1 50.5234989829 5.74158690029 1.40866210981
5857 1 49.0737446882 7.68248108027 0.609296800767
5410 1 52.3457198182 4.27841364972 2.42914734685
5442 1 55.1717612039 4.27400021809 1.71658139865
5888 1 52.455176441 7.08756306498 2.47158311448
5920 1 55.1873742421 7.104781081 1.73155985952
5921 1 53.4180877618 5.69818667566 0.706275410655
5919 1 54.164045714 5.66467312412 3.47235338616
5475 1 57.932501207 4.27181173141 0.9987542886
5952 1 56.9203648444 5.68583554484 2.74374109472
5953 1 57.9313542321 7.12211513244 1.00358080805
5506 1 61.3894027914 4.26794396661 3.04346635026
5508 1 60.6749898737 4.2751557069 0.279362942383
5984 1 61.3917066305 7.11937824898 3.04281674923
5985 1 59.6623847162 5.69549007041 2.02128443555
5986 1 60.6728693973 7.1287761429 0.279085853123
6018 1 62.3986159779 5.69809909225 1.29959373803
5539 1 64.123860822 4.26953727634 2.3217987046
6017 1 64.1249189886 7.12104638463 2.32037736606
6050 1 65.1292910423 5.70014908111 0.575697301034
6048 1 65.8527767058 5.69394552901 3.34400415226
5571 1 66.8568385421 4.27349442279 1.5989528015
5604 1 69.5991845494 4.28750184002 0.877091339506
6049 1 66.8576627104 7.12438753164 1.59761366796
6081 1 68.5873974378 5.70130375987 2.62197392616
6082 1 69.5987239179 7.12764188137 0.875976394077
5635 1 73.0484273885 4.28946471866 2.93040881781
6113 1 73.0538107601 7.14566684753 2.92790888348
6114 1 71.3332311048 5.71287190017 1.89852719311
5476 1 72.3237276194 4.29214769516 0.152792329031
5954 1 72.3281452784 7.14089196878 0.150544951151
5602 1 70.3211444912 4.2839905487 3.64252601881
6080 1 70.3204038918 7.12745269967 3.64174352571
5667 1 75.7767598196 4.29838382556 2.20929853505
6145 1 75.7958907252 7.16056073939 2.20241504265
6146 2 74.055917709 5.72485111386 1.18326506836
6176 1 76.7805511639 5.73400286466 0.45917106296
6174 1 77.4942330316 5.72920111683 3.23850070649
5697 1 78.4922519912 4.29983803667 1.49768093891
6175 1 78.493826437 7.13937192929 1.51171287922
6196 1 80.2246077873 5.73203064416 2.52790731784
5719 1 81.1934182685 4.27908425417 0.783060798056
6197 1 81.217977954 7.15956265443 0.774209472592
5730 1 84.5848388378 4.32544158842 2.81252384521
6208 1 84.5939351704 7.13055657395 2.83441551654
6209 1 82.8700883343 5.73314348276 1.79397683174
6195 1 81.9518888358 7.18016409661 3.5564227472
5717 1 81.9380571794 4.28141139762 3.56272732953
5605 1 83.8778754759 4.25187125751 0.0901535622513
6083 1 83.8546109979 7.18786077552 0.0239035233164
5735 1 87.4080439324 4.71161213847 1.49648825265
6213 1 87.4528509903 7.12600192334 2.07686944031
6214 1 85.4297639796 5.74138258052 1.10995104225
1436 1 3.08155142523 8.64275020084 0.563317657518
1925 1 2.9087736718 11.3642543231 0.715073176893
1923 1 2.06313348843 11.638264917 3.36025590585
1445 1 1.90463219841 9.31442474799 2.63735433941
1915 1 0.18544026138 11.032611608 2.11148300078
1446 1 4.05761007655 10.060073303 2.37555175709
1463 1 6.66873321703 10.075084962 3.03817190787
1464 1 5.71849954604 8.62315450186 1.28303271933
1942 1 5.6630094398 11.5144016078 1.2926450498
1465 1 7.41165014113 10.0522369488 0.26590742731
1490 1 8.4011122595 8.60594952123 2.01398522382
1491 1 10.1339804589 10.0008627876 1.01051524684
1968 1 8.3899946984 11.4676504933 2.02764239818
1999 1 11.1217727674 11.4225443731 2.76055290863
1521 1 11.1284687116 8.52355641296 2.76647409977
1522 1 12.8495904693 9.96758787339 1.75174112667
1553 1 13.82410095 8.50577878517 3.49898303434
1555 1 14.5771889368 8.54732214475 0.726242399314
2031 1 13.8472486131 11.3964946273 3.49214672051
2033 1 14.5906950535 11.4006780609 0.730110171432
1554 1 15.5777995016 9.96168196886 2.48511397949
1585 1 18.3215499544 9.97301023264 3.20406378899
1586 1 17.3312111195 8.55990811565 1.45080649432
2064 1 17.3228435606 11.3941851271 1.4593580373
1587 1 19.0640950156 9.97840418481 0.429168322695
1618 1 20.0574276016 8.55208931957 2.17885319729
1619 1 21.7980153541 9.97617000026 1.16226120007
2096 1 20.0587627624 11.3972326807 2.18337332543
1649 1 22.7995181953 8.54956143413 2.90671495896
1650 1 24.5396445927 9.97617315108 1.89687587831
2127 1 22.8014386812 11.3991514317 2.91082544246
2129 1 23.5377019502 11.405010945 0.150870962433
1651 1 23.5349843599 8.54931717199 0.147984507364
1681 1 25.5488510345 8.54749917225 3.63865795872
2159 1 25.5502952856 11.3992962662 3.64360396101
1682 1 27.2895598712 9.97165256183 2.63656289226
1683 1 26.2772325698 8.55157272464 0.888452246764
1715 1 29.0348660844 8.55520915159 1.64330524498
2161 1 26.2798416512 11.4050077477 0.892815825742
2193 1 29.0297791854 11.3998129683 1.64340482431
1714 1 30.0677679241 9.96703035518 3.3936928746
1716 1 30.7616710757 9.97490161776 0.634816858827
1747 1 31.7754535589 8.56208630458 2.37081852403
2225 1 31.7530136162 11.4249949673 2.35166773036
1748 1 33.4868783293 9.98083551107 1.35734145713
1778 1 34.4671730796 8.56360733342 3.08468964163
1779 1 36.2208058081 9.96876710897 2.08985992279
2256 1 34.5134106911 11.4235733899 3.08682153754
2258 1 35.2214919063 11.3930802223 0.346970633522
1780 1 35.2182715213 8.5462557137 0.329089401146
1810 1 39.0032253095 9.960484742 2.83283715223
1811 1 37.968873345 8.55039501991 1.06443590833
2289 1 37.9943619541 11.3797435967 1.08098840886
1812 1 39.7471078329 9.9443470779 0.0384501647015
1843 1 40.7303865187 8.52428645086 1.78380638991
2321 1 40.7683094095 11.4014929911 1.81255868908
1844 1 42.3919856977 9.92825750838 0.731210789502
2352 1 43.269555584 11.4106900488 2.54716149961
1842 1 41.625208217 9.92635899778 3.58816891823
1874 1 43.3825233781 8.4544916506 2.51675904046
5856 2 47.353503047 9.20953724803 0.732952293758
6695 2 44.6300240127 10.078578745 1.45368557422
6215 1 45.9773668574 10.9092086415 3.33507570054
6812 1 47.9348417849 11.5550708031 2.00160163396
6334 1 48.0485668412 8.81495286087 2.74296659389
6333 1 49.9637832619 10.1242524992 3.15814930289
6335 1 49.2898592931 10.168171513 0.465241009083
6367 1 50.9048914255 8.63310719954 1.55966101552
6845 1 50.8667956336 11.5249789003 1.38069185273
6366 1 52.5679603814 10.0410893502 2.4691106107
6398 1 55.2246527373 9.98713944787 1.72925690686
6399 1 53.4974104108 8.55597949143 0.722615215197
6877 1 53.5329519314 11.4460311917 0.685755866482
6875 1 54.2614393894 11.4479983658 3.47582272054
6397 1 54.2075589701 8.53903635639 3.47743016888
6430 1 56.9287449495 8.5408762979 2.74524874993
6431 1 57.9368997011 9.97257225748 0.998406300036
6908 1 56.9569137313 11.4138455513 2.74053220919
6462 1 61.3940358714 9.97086482934 3.04096973138
6463 1 59.6637699134 8.54628698461 2.02073868401
6464 1 60.6667353373 9.97447666169 0.272778965565
6496 1 62.3965970224 8.54918641186 1.29815855661
6941 1 59.6788205642 11.4050098584 2.01273536307
6974 1 62.3862343867 11.4049526565 1.29619454284
6495 1 64.1198721688 9.97376793969 2.31714845801
6528 1 65.1266203775 8.55084955646 0.57485520976
7006 1 65.1200484651 11.4037130203 0.575795564022
6526 1 65.85140571 8.545892378 3.34007701265
7004 1 65.8439442102 11.4018902705 3.33163833609
6527 1 66.853291876 9.97407315245 1.59523916683
6559 1 68.5865739693 8.54917035101 2.61872255237
6560 1 69.5912155426 9.9773579873 0.873916896675
7037 1 68.5752358766 11.4033654239 2.61439657643
6591 1 73.0550407818 9.98180193633 2.91906672295
6592 1 71.3293407215 8.55193296535 1.89626954281
7070 1 71.3181579469 11.404338067 1.89611270075
6432 1 72.3324526023 9.9798275415 0.153164384468
6558 1 70.3124067002 9.97645243711 3.63966304956
6623 1 75.7951273764 9.98790535355 2.19527880584
6624 1 74.0628757906 8.56256102227 1.17489197819
6654 1 76.8125176067 8.57520193054 0.442728597265
7102 1 74.0625336164 11.4078363978 1.17329342513
7132 1 76.8153114064 11.398217081 0.436744628336
6652 1 77.5145359386 8.58010576825 3.24058099152
7130 1 77.5259898522 11.4156295299 3.24119449173
6653 1 78.5146095727 10.0157183681 1.50047782871
6674 1 80.2387765354 8.59141265411 2.52701849844
7152 1 80.2683905233 11.4263366178 2.52702429758
6675 1 81.2539739533 10.0279269085 0.780590322837
6686 1 84.7015319383 9.98404244015 2.80956505254
6687 1 82.9542791121 8.60186091359 1.79130229507
7165 1 83.0300466005 11.426112178 1.79119114265
6673 1 81.9977663061 10.014592383 3.55303708375
6561 1 84.0011461636 10.0024283965 0.0294454890782
6691 2 87.1073261134 9.61795434292 2.37941054672
6692 1 85.6543913825 8.55239807038 1.01987698523
7170 1 85.8857843193 11.3689145534 1.04991736476
1914 1 1.18332849062 12.9943274742 1.16812246917
2392 1 1.04389904545 15.3008998788 1.66928597898
2401 1 2.04084820617 14.1992698723 3.41476632937
2403 1 3.05488869082 14.2682939506 0.568406704139
2391 2 0.0915213128841 15.9962930236 3.63320950192
2402 1 3.78792835899 15.6862063156 2.37958264238
1924 1 3.88279211238 12.8857372882 2.36071020663
1941 1 6.6106767817 12.9074875534 3.06684074474
2419 1 6.58107711963 15.7201204231 3.05827992041
2420 1 5.59498278071 14.3233283735 1.28845022832
2421 1 7.34505844434 15.7101220379 0.278188281341
1943 1 7.37979159014 12.8920152709 0.271482036096
1969 1 10.1249759212 12.8642773954 1.01310478248
2446 1 8.35905279802 14.2983991809 2.03210536848
2447 1 10.1138806016 15.7012006366 1.01162684786
2477 1 11.1209301432 14.2766576191 2.75838741754
2000 1 12.8601919451 12.838872374 1.74394274589
2478 1 12.8648525928 15.6918091497 1.74021195139
2509 1 13.8611236852 14.2585286233 3.48844997136
2511 1 14.601198365 14.2598688959 0.725958230982
2032 1 15.5932108583 12.8217572415 2.47687196717
2063 1 18.3246796426 12.8155966091 3.20480434932
2510 1 15.6019408977 15.6833904708 2.46991684528
2541 1 18.3349686507 15.6802610656 3.19685270495
2542 1 17.3325143033 14.2524925211 1.45451422764
2065 1 19.063532139 12.8264707157 0.434856456079
2097 1 21.7998404039 12.8279273771 1.16513875397
2543 1 19.0698018137 15.6848680232 0.433588948461
2574 1 20.0642988718 14.2511376864 2.18141766567
2575 1 21.8035880809 15.6837762984 1.16452409184
2128 1 24.5414720995 12.8294149973 1.90081296337
2605 1 22.8032490876 14.2520846475 2.91210818243
2606 1 24.5415815767 15.6829216063 1.9008891705
2607 1 23.5396997997 14.2590207939 0.151864809986
2637 1 25.5487871505 14.2540409738 3.64984704888
2160 1 27.2885869754 12.8303329217 2.64283483463
2638 1 27.283417967 15.6831637724 2.64411342676
2639 1 26.2796084402 14.2588384157 0.892825044924
2671 1 29.0203952988 14.2604199774 1.6383372132
2192 1 30.0323164514 12.8341626449 3.39042263858
2194 1 30.7486043812 12.8357558866 0.62248564269
2670 1 30.031567498 15.6784318235 3.40001032842
2672 1 30.7493906422 15.6861739434 0.622650593214
2703 1 31.7583518805 14.2561965995 2.37322503795
2226 1 33.491057892 12.8336708259 1.35479495939
2257 1 36.2466110752 12.8209380248 2.09141765808
2704 1 33.4880438387 15.6798392987 1.35673228968
2734 1 34.5021489019 14.2529379993 3.10396591202
2735 1 36.2453039537 15.6713050228 2.09127583742
2736 1 35.2224784381 14.2535581687 0.349549543693
2288 1 39.0064697253 12.8143329195 2.83588831959
2766 1 39.0248917504 15.6633248513 2.83436167118
2767 1 37.986195147 14.2377771994 1.08727665272
2768 1 39.7107293807 15.6651005159 0.0835514307866
2290 1 39.7370307042 12.8087126438 0.0601434220328
2799 1 40.7496314018 14.2339754893 1.81451703054
2322 1 42.5089473808 12.8707872191 0.732791581782
2800 1 42.5246643738 15.5850965451 0.735825147901
2830 1 43.5103809199 14.1838247159 2.52180350549
2798 1 41.7845872618 15.5928936013 3.62099198787
2320 1 41.7194933808 12.8571052465 3.62276536248
7259 1 45.3321029047 12.6431138793 1.75914406107
6780 1 45.6534030252 15.112861567 1.78583029406
7290 1 47.9297392451 14.1515915723 1.88288140644
6811 1 49.7203348981 12.779266055 3.09359699561
6813 1 49.0406696033 12.8994640272 0.223369198846
7289 1 49.7659450172 15.6987615724 2.92712483478
7323 1 50.7969264774 14.094839822 1.39228838798
7291 1 49.2542855416 15.6434859823 0.389242079204
6844 1 52.5824148214 12.8796089475 2.44297551674
6876 1 55.2575019777 12.8651134841 1.72139630784
7322 2 52.5581528046 15.6152399295 2.28050213644
7355 1 53.5603539666 14.273570205 0.650646253232
7353 1 54.25093993 14.3014096005 3.46194994291
7354 1 55.2820207492 15.6772160019 1.72495601734
6909 1 57.9710188418 12.8396617822 0.998050665001
7386 1 56.9987016787 14.2880374373 2.73029408796
7387 1 58.0398825704 15.7132120795 0.988416672466
6940 1 61.4011660224 12.8339862236 3.0359968819
6942 1 60.6704322973 12.8330882212 0.266521217715
7418 2 61.4424395346 15.5468750847 3.1662535787
7419 1 59.7037047822 14.26653353 2.00373306685
7420 2 60.6445677206 15.544654378 0.127390628015
7452 1 62.3830894622 14.2652583325 1.29600467768
6973 1 64.1055070212 12.8307036841 2.30691821446
7451 1 64.0634160178 15.7082841933 2.30229737317
7484 1 65.0781502578 14.2606530592 0.575327033072
7482 1 65.8113335763 14.2566124793 3.33375358744
7005 1 66.8374889887 12.8321420772 1.59296201274
7038 1 69.5787842461 12.8286365869 0.874492425782
7483 2 66.8324051088 15.5499217291 1.58810107209
7515 1 68.5789528051 14.242046244 2.61924515813
7516 1 69.5485011305 15.6826603354 0.880388830345
7069 1 73.0448190773 12.8301523725 2.92107458858
7547 1 73.0310698269 15.677986399 2.92128151371
7548 1 71.3000496678 14.25777348 1.89577763971
6910 1 72.3221079311 12.8331311898 0.154551948067
7388 1 72.3109728152 15.6782001265 0.157268122185
7514 1 70.2714966677 15.6896843558 3.62278680312
7036 1 70.301547696 12.8275625542 3.63654613753
7101 1 75.7961204246 12.8278237885 2.20106357723
7579 1 75.7826472718 15.6764841239 2.21300433628
7580 1 74.0530929566 14.2530201604 1.18103371928
7610 1 76.7975423122 14.2604812772 0.467329642501
7608 1 77.5278086102 14.2561618265 3.24168419932
7131 1 78.5345783546 12.839851878 1.49430722735
7609 1 78.5341880244 15.6861916029 1.50223740822
7630 1 80.2883726763 14.2668656765 2.52541036609
7631 1 81.2854876686 15.7164937312 0.786125840251
7153 1 81.2770653456 12.843628228 0.777242609657
7643 1 83.0412570756 14.288624175 1.80392924349
7164 1 84.8286671636 12.8550873041 2.77888697777
7629 1 82.0441114694 15.6884715891 3.55880009918
7151 1 82.0429742525 12.8416136844 3.54309066445
7642 1 84.8209355047 15.7628897144 2.84216245139
7517 1 83.9484054356 15.7831060832 0.0685669333155
7039 1 84.0098836809 12.8130438405 0.0482481836493
7169 1 87.5055326805 13.0968579318 1.94546012968
7647 1 87.2677646197 15.861353662 1.97550021393
7648 1 85.6407103985 14.3402804809 1.03520107578
2393 2 88.0597482377 14.6130304707 0.164344773753
2870 2 1.14324910714 18.8133063896 1.79047450386
2881 1 2.58573997761 17.0329076334 0.761240895898
3359 1 2.83081143471 19.9380762401 0.578644927891
2879 1 2.11156312799 17.0936635098 3.39743858728
3348 1 2.14687127161 20.0375046191 3.45467022785
2880 1 3.81677701337 18.5434057356 2.33412866458
2897 1 6.58610486502 18.5222106198 3.03604939921
2898 1 5.52761159038 17.0949134613 1.2944436273
3376 1 5.61509410051 19.9410541675 1.27099292232
2899 1 7.35386124806 18.5334750397 0.285109590031
2924 1 8.34998057128 17.1171266242 2.02520175124
2925 1 10.1085655935 18.5449703614 1.01154910326
3402 1 8.35149398388 19.9682856336 2.01965039068
3433 1 11.1247965338 19.9684819387 2.74492967704
2955 1 11.1222052093 17.1166844805 2.75152411705
2956 1 12.865236656 18.5428467998 1.73797466751
2987 1 13.8680777286 17.1129142826 3.48303929588
2989 1 14.6039367196 17.1166576878 0.723145983941
3465 1 13.8715614583 19.9689368746 3.47815587408
3467 1 14.6034656999 19.9740329733 0.723074612577
3435 1 11.8591600323 19.9751562157 44.3224445004
2988 1 15.6057509636 18.5422443787 2.46604488794
3019 1 18.3401607958 18.5420044587 3.19352701731
3020 1 17.3382280377 17.1136418659 1.45039227687
3498 1 17.3390811695 19.9748746701 1.44878229125
3021 1 19.0727056788 18.5457669662 0.43227858154
3052 1 20.0711211883 17.1121089162 2.17855576978
3053 1 21.8070979549 18.5442373467 1.16326343918
3530 1 20.0727577965 19.9744611607 2.17639679028
3083 1 22.8054541354 17.1094787801 2.91071871222
3084 1 24.5419052316 18.5387877584 1.90012167052
3561 1 22.8072117769 19.9709584763 2.90908694748
3085 1 23.542475415 17.116067247 0.151108548898
3563 1 23.5450546869 19.9758589043 0.151395020213
3593 1 25.539821597 19.9588965393 3.64990745737
3115 1 25.54491857 17.1050189342 3.65075298665
3116 1 27.2809069853 18.5275802019 2.6457701397
3117 1 26.2789533499 17.1130504312 0.89119517004
3149 1 29.0189164689 17.1064384105 1.63826507899
3595 1 26.2798810018 19.9662413112 0.891740619099
3627 1 29.0135089315 19.9559776735 1.63940129077
3148 1 30.0263218909 18.5178094257 3.39340526213
3150 1 30.748279797 18.5358370144 0.624087459661
3181 1 31.7576260531 17.099918705 2.37413985109
3659 1 31.7532802595 19.9511739134 2.37164375628
3182 1 33.4838935269 18.5327891969 1.35253095157
3212 1 34.4978546195 17.0901399175 3.10153712436
3213 1 36.2367111556 18.5170680617 2.083974165
3690 1 34.4985482356 19.9412879785 3.09062287952
3214 1 35.2156372389 17.1106315677 0.346670897491
3692 1 35.2107574537 19.9714807004 0.338221754511
3244 1 39.0400532249 18.4999477209 2.81262912096
3245 1 37.9860228259 17.0962329769 1.08880603472
3723 1 37.9718050478 19.9450869265 1.08346134845
3246 1 39.7336733041 18.5152830326 0.0958671666102
3277 1 40.8055310545 17.0621176937 1.81660316266
3755 1 40.7767835905 19.9710330316 1.80884207955
3278 1 42.4696012636 18.5634986251 0.796436559288
3276 1 41.8177817361 18.4572334274 3.55878119836
3786 2 43.3341913778 20.1203677153 2.68079337105
3308 1 43.4273712996 16.8004886412 2.5307105308
7171 1 44.2951469758 17.1359793349 0.0362445824218
7737 2 45.5154237795 17.4797652228 2.32300421602
7735 1 46.1798066075 18.799046277 0.670253789379
7768 1 47.8612548652 16.972039163 1.9113090202
7734 1 47.0353744249 18.9858951077 3.4242376183
7767 1 49.6389844709 18.6136142391 3.09706432592
7801 2 50.4080544687 17.5861436074 1.29136198639
8279 1 50.8598272113 20.0474004134 1.34222370331
7769 1 48.5755459208 19.3283174691 1.00306711937
7800 1 52.4855763498 18.4986286478 2.36073908393
7832 1 55.2564041694 18.5377627332 1.72662430793
7833 1 53.6737531479 17.1048331602 0.667729247017
8311 1 53.538119785 19.9959680622 0.703046299664
7831 1 54.2078705253 17.0859804572 3.42103588173
8309 1 54.1956906838 19.9375709245 3.42272931238
7864 1 57.0090641439 17.1156722384 2.71028023405
7865 1 58.0345954491 18.5337672245 0.986169335084
8342 1 56.9810612071 19.9598926673 2.71334703692
7863 1 58.7428000687 18.5295240182 3.69331063011
7896 2 61.4420633385 18.6929501593 3.15812167962
7897 1 59.8181995404 17.1212043614 1.96741445016
7898 2 60.6450436648 18.6873695341 0.125896702332
7930 1 62.2901447622 17.1166879454 1.32318470882
8375 1 59.7082551532 19.9830741488 1.98320622174
8408 1 62.3863562198 19.9728284663 1.27672151067
7929 1 64.0630929344 18.5235470775 2.29567252483
7962 1 65.0947762768 17.1118675774 0.602810280544
8440 1 65.0649911275 19.9721963502 0.560860752904
7960 1 65.8278147854 17.1137860347 3.27969122052
8438 1 65.806489277 19.971900612 3.32871501259
7961 2 66.8236006337 18.6743195605 1.58322426095
7993 1 68.5262681702 17.1094742896 2.59069013764
7994 1 69.5421634243 18.530056077 0.877936507047
8471 1 68.5691068303 19.9771238459 2.61575703539
8025 1 73.0222080104 18.5228850272 2.92291108844
8026 1 71.2814210142 17.1036687952 1.89118476092
8504 1 71.2879133412 19.951280344 1.89561496517
7866 1 72.3023234076 18.5238022447 0.156625610393
7992 1 70.2657909622 18.5225509143 3.6223045098
8057 1 75.7681147788 18.5202377267 2.2145013414
8058 1 74.0397006556 17.0999334156 1.18444713338
8088 1 76.7837408385 17.1022718014 0.471388025129
8536 1 74.0310712924 19.9480439663 1.18424385294
8566 1 76.7650941298 19.9466007703 0.469874500825
8086 1 77.5156677218 17.0963128831 3.24482066882
8564 1 77.4924789173 19.9416922587 3.24265451927
8087 1 78.5108887451 18.5241729656 1.50290848944
8108 1 80.2741068196 17.1100881711 2.53375721562
8586 1 80.2333193746 19.9493720651 2.52854932698
8109 1 81.2555936541 18.5481229634 0.789749761388
8121 1 83.0104692744 17.147923035 1.8620438987
8599 1 82.9511942311 19.9961589868 1.84840780336
8107 1 81.9957485898 18.5464357096 3.57269125866
7995 2 83.9227279721 18.6153577842 0.212222018365
8120 1 84.8211088022 18.6624045593 2.88841777659
2871 1 88.3611895619 17.1619414315 0.267491682096
8125 1 87.4607027474 18.8268443318 1.75542245609
8126 1 85.6469000278 17.287453345 1.096514671
8604 1 85.6611967969 20.1605542702 1.11529602963
3837 1 2.62830343148 22.3775908497 0.825090613948
3826 2 0.270449470872 23.4884260893 0.995807714278
3835 2 2.2510589851 22.5317184534 3.25533057773
8603 1 0.353049160669 21.1026866042 1.89677875634
3358 1 4.00515162391 21.2916476278 2.37237467164
3375 1 6.59931542071 21.3885960084 3.03721347816
3836 1 3.76731844799 24.2314303065 2.12008474169
3853 1 6.5834654907 24.2490184295 2.99897597736
3854 1 5.57235415558 22.8129463919 1.2751772259
3855 1 7.33041346171 24.2744345362 0.276108610629
3377 1 7.35172395413 21.4186725937 0.279799834349
3403 1 10.1091576105 21.404633786 1.01128302097
3880 1 8.3535897245 22.8308998013 2.01399742654
3881 1 10.1170408608 24.2622910159 1.01174418187
3911 1 11.1307227291 22.826668567 2.74202379019
3434 1 12.8665626519 21.4007953831 1.73660875024
3912 1 12.8597022461 24.2674994965 1.74007245596
3943 1 13.869846685 22.8322506098 3.47612610188
3945 1 14.5993861932 22.8376671708 0.72459962132
3913 1 11.8616968715 22.8384157468 0.0019793657545
3466 1 15.6051617778 21.4034415256 2.46451236074
3497 1 18.3402300122 21.4047338636 3.19135212255
3944 1 15.5995853451 24.2670995561 2.46819012932
3975 1 18.335695994 24.2684192053 3.19164388138
3976 1 17.3349301853 22.8385340989 1.44810177279
3499 1 19.0697972728 21.4083189232 0.430878772657
3531 1 21.8061440157 21.4059145738 1.16240915661
3977 1 19.0609454515 24.2734989761 0.426667372429
4008 1 20.0690736847 22.8386339771 2.17336478774
4009 1 21.8000439224 24.2692268251 1.15917223824
3562 1 24.54346988 21.3995724368 1.89951477131
4039 1 22.8065541468 22.8342487225 2.9062441744
4040 1 24.54523428 24.2607449292 1.89677180665
4041 1 23.5428100196 22.8347948636 0.152306669229
4071 1 25.5435747273 22.826265222 3.64506470547