ITEM: TIMESTEP
16000
ITEM: NUMBER OF ATOMS
9560
ITEM: BOX BOUNDS pp pp pp
0.0 88.6430375159
0.0 28.55
0.0 44.3215187579
ITEM: ATOMS id type x y z
2 1 1.12145206359 1.23872567538 1.4813053835
491 1 3.14345028569 2.73065338564 0.53531795617
12 2 2.88366004034 1.98425313942 2.63187662702
13 1 3.07446283929 0.0966807290383 0.763409965242
5257 2 0.109654291756 0.149787500971 3.25094842943
480 1 1.20012077723 3.72980058692 1.56911266768
29 1 6.57035279915 1.39873678477 3.02974900607
508 2 5.68738331722 2.98286088791 1.31291950781
31 1 7.31628666031 1.45018781025 0.285602406591
57 1 10.0725817999 1.42860433174 1.02655527219
534 1 8.33394278665 2.83219156563 2.04071051688
56 1 8.30643534408 0.010846529777 2.01756858928
565 1 11.0851234483 2.84049595888 2.77238302115
88 1 12.8194628342 1.42022764108 1.75670382528
597 1 13.8168037127 2.84764880975 3.49513453995
599 1 14.5569855445 2.84612171755 0.742846328383
567 1 11.8331409043 2.85438848005 0.0221884689109
120 1 15.5587268304 1.4181105313 2.47842777931
151 1 18.2988824884 1.41627914388 3.19963878872
630 1 17.2896806658 2.84502391977 1.45806517582
153 1 19.0192463615 1.42367577605 0.424994388712
185 1 21.7650775957 1.41370259573 1.16076718622
662 1 20.0293318133 2.84068532239 2.17730947427
216 1 24.5066123742 1.40829658685 1.89475583424
693 1 22.771969331 2.83799900186 2.90840763627
695 1 23.5007262128 2.83753419563 0.148941610363
725 1 25.5174423916 2.83435580237 3.63887253781
248 1 27.2489268788 1.40094984023 2.62524210976
727 1 26.2408279709 2.83565774979 0.884038696112
759 1 28.9797199807 2.83295582662 1.61611789006
280 1 29.9874032528 1.39072548301 3.35063578864
282 1 30.7011956311 1.39669756624 0.602758307028
791 1 31.7142861118 2.82572749145 2.34243534809
314 1 33.4259386156 1.38235656307 1.33061721802
345 1 36.1292910979 1.38967660395 2.04831724748
822 1 34.4454790325 2.81799330985 3.06821739979
824 1 35.1457011857 2.80830091036 0.312662096473
376 1 38.8775267691 1.34451591371 2.82601881426
855 1 37.9617403831 2.65661971412 0.978960518964
887 2 40.4005489975 2.98940994078 1.99936638834
410 2 42.98221207 1.27783188044 0.961668565275
918 1 43.8930290942 2.73904230007 2.71340769845
408 1 41.8402369562 1.38779002458 3.36304574463
1396 1 42.398239723 3.91258443177 0.764110271015
4866 1 46.0843033469 0.918906112933 2.43696591962
5378 1 46.4749244029 1.98003103475 0.305144577103
5346 2 44.904148359 3.95412073519 0.694387446461
5824 2 46.117809913 2.96895009946 3.53537069125
5347 2 48.3357024487 3.2425740219 0.10865469443
5344 1 48.1600918101 2.63445376102 2.41056369617
4899 1 49.8893695526 1.11994807442 3.19449948037
5411 1 50.6299217482 2.95626466825 1.38144709206
4901 1 49.1191131456 1.22250367224 0.487137397313
4933 1 50.9029603176 0.0415932681198 1.35699671356
4932 1 52.4463314044 1.52191053293 2.47479962408
4964 1 55.235540569 1.46330057007 1.76394259079
5443 1 53.5103520148 2.9029015773 0.717603921593
5441 1 54.1864873953 2.8773716982 3.49730231957
4965 1 53.5664908525 0.0988250815054 0.654257764248
4963 1 54.1871277244 0.0138305837645 3.50798858763
4997 1 57.9703221647 1.44077594267 1.02417814666
5474 1 56.9638924502 2.87254977734 2.76579763276
4837 1 56.2412252344 0.0311207996957 0.00689263452428
4996 1 56.9686821871 0.00764982714533 2.77944771015
5028 1 61.4231163581 1.44772976153 3.04256984594
5030 1 60.689712337 1.43080321581 0.293439793636
5507 1 59.6938820007 2.86641743332 2.03692291312
5540 1 62.4152059937 2.86236515875 1.31121031432
5029 1 59.6968193901 0.00592978647823 2.05038763214
5061 1 64.134341912 1.42728854643 2.33710310345
5572 1 65.1401550016 2.85728728474 0.587325014052
5570 1 65.8711697139 2.85833425443 3.35184140442
5092 1 65.8686683041 0.00477586234503 3.35098996714
5094 1 65.1343940001 -0.00173117668997 0.58947696205
5093 1 66.8741208596 1.4323933605 1.6063489118
5126 1 69.6179522165 1.43922973765 0.88378590379
5603 1 68.6134219469 2.86437330862 2.62503010106
5125 1 68.6116627702 0.00858018124021 2.62382750586
5157 1 73.0856175265 1.44824942014 2.91789801859
5636 1 71.3630182627 2.87818009788 1.90446189725
4998 1 72.3454907373 1.43739750321 0.157805793509
5124 1 70.3500168004 1.43984167307 3.64074545116
5158 1 71.3493390035 0.00940306456088 1.90081146422
5189 1 75.7919716088 1.44865947068 2.2030784133
5668 1 74.0691121523 2.87828326277 1.17835077464
5698 1 76.7799016439 2.87587334796 0.468969180676
5696 1 77.5089589435 2.88336968292 3.22015988959
5190 1 74.0746436038 0.00407416927605 1.17773574879
5218 1 77.5317797663 0.0121739819417 3.22010218026
5220 1 76.7998580349 0.00327808423454 0.460487444567
5219 1 78.5271758553 1.44091192384 1.48067471082
5718 1 80.253565931 2.87548638889 2.50876187584
5240 1 80.2740843456 0.0153599070375 2.50627864805
5241 1 81.2549966106 1.43518368173 0.754766459933
5731 1 82.9556198645 2.87841780033 1.79971635169
5239 1 82.0154116993 1.45863957798 3.53449551135
5252 1 84.7312523445 1.44633415404 2.87238982912
5253 1 83.0150624099 0.0280273915912 1.77975075187
1 1 87.6316593252 1.93816498898 2.34907681162
5736 2 85.4425341427 2.87870546587 1.27365748704
5258 1 85.7461533496 0.291890663806 0.92393453581
5735 1 87.3510586468 4.02793615118 1.45050470198
958 1 1.20309718581 7.37694716193 1.62707478847
969 1 2.76908008124 5.66324274301 0.898051995523
967 1 2.12440911868 5.83508637318 3.43807398731
490 1 3.8515436647 4.27852578263 2.48706691352
968 1 3.91210290644 7.18143204601 2.41077563484
507 1 6.65696200444 4.24195112403 3.09257244442
985 1 6.71604173415 7.16379593245 3.06485817447
986 1 5.62949277838 5.71337503666 1.42025599285
987 1 7.37655038814 7.11145901814 0.335520947896
509 1 7.38384512355 4.30474860999 0.302912991232
535 1 10.0905901577 4.25501921674 1.03132988767
1012 1 8.39034602702 5.68853334105 2.06398960061
1013 1 10.1119998749 7.12251402493 1.03968368943
1043 2 11.0976820745 5.69249638763 2.77020910808
566 1 12.8327183208 4.26333268579 1.75843107994
1044 1 12.8416897879 7.12589990679 1.76420260038
1075 1 13.8195279315 5.69524637119 3.49402828735
1077 1 14.5586394165 5.69222504415 0.747860376442
1045 1 11.8435025338 5.68920114621 0.0247646201096
598 1 15.5537956868 4.26967546863 2.48248866756
629 1 18.2968794122 4.26654897234 3.20174615332
1076 1 15.5586656093 7.12072012388 2.49169468891
1107 1 18.2911402249 7.11991161606 3.20877177566
1108 1 17.2899078443 5.69002515082 1.45997271526
631 1 19.0163773632 4.2624069665 0.425774693102
663 1 21.7622244037 4.26498913861 1.16196148579
1109 1 19.0165008395 7.10947895124 0.431997146238
1140 1 20.0245779062 5.69031387806 2.17951767417
1141 1 21.7554484564 7.11644082037 1.16533095229
694 1 24.5065677112 4.2646556577 1.89614542317
1171 1 22.7694709342 5.69118946088 2.90963176929
1172 1 24.5033383464 7.11758162289 1.89722624306
1173 1 23.4965780883 5.69036232515 0.149717097701
1203 1 25.5176626291 5.69203507283 3.64059703573
726 1 27.251750788 4.26451120236 2.62879689447
1204 1 27.2564939495 7.11912664393 2.63037683783
1205 1 26.2416994448 5.69207741689 0.884932115657
1237 1 28.9892067722 5.69404241307 1.61971996062
758 1 29.995518994 4.26307895306 3.35871023825
760 1 30.7130917353 4.26238379361 0.601983382451
1236 1 30.0146555648 7.12876528414 3.36808861495
1238 1 30.7249687676 7.10793511056 0.592207486806
1269 1 31.731005826 5.69082775631 2.34356989027
792 1 33.449752948 4.25358381065 1.3288456895
823 1 36.2274083223 4.20419903839 2.03148266318
1270 1 33.4726631963 7.09748868046 1.31624818309
1300 1 34.4821030425 5.67424677944 3.05876266992
1301 1 36.2219134353 7.09193912564 2.03354197161
1302 1 35.1986452088 5.65270340028 0.303352290471
854 1 38.8175076162 4.28754966206 2.79674786491
1332 1 39.0077816494 7.06580821795 2.76123395096
1333 1 37.9299927141 5.63241050332 0.988356065808
886 1 41.753560034 4.13681913989 3.42854216526
1365 1 40.6954498928 5.55805339681 1.68709567318
1364 1 41.8767901053 7.07660514102 3.19463962078
1366 1 42.4464415292 6.87137741469 0.523095087228
6217 1 43.5066059867 5.41504930642 2.27125143797
6302 1 44.8400315043 6.28228001367 0.184648116199
5822 2 47.2238034986 6.15191537622 2.74046235286
5739 1 48.6084822653 5.20202780614 1.20462112753
5377 2 49.9643041254 4.52328084019 2.95625006664
5855 1 49.7393693149 7.12552023038 2.99225957745
5889 1 50.9044205492 5.86235502694 1.27765202766
5857 1 49.1913602989 7.46215985512 0.344298058385
5410 1 52.4598621018 4.28839460011 2.4496978035
5442 1 55.2377801749 4.29899673092 1.74235291795
5888 1 52.6240866985 7.17007731608 2.43335409468
5920 1 55.2595695094 7.15241117468 1.73201050395
5921 1 53.5383199442 5.73951500906 0.699102895299
5919 1 54.2277199919 5.7012891618 3.48275987166
5475 1 57.9716972674 4.30141737187 1.01417112601
5952 1 56.9695949757 5.72027367302 2.75926424174
5953 1 57.9704896015 7.15883882384 1.01006890893
5506 1 61.4174937896 4.29262503823 3.05743757906
5508 1 60.6916321973 4.29684493619 0.288004248186
5984 1 61.4183509029 7.15497140258 3.05501750878
5985 1 59.6948015688 5.72682421416 2.0343955814
5986 1 60.6918914968 7.15890605105 0.287367457081
6018 1 62.4176401901 5.72356356573 1.31009060955
5539 1 64.1439883923 4.29002217385 2.3317435798
6017 1 64.1457518494 7.14974958572 2.33063941141
6050 1 65.1454684072 5.71910615373 0.585026879787
6048 1 65.8746766887 5.71614256304 3.35103046379
5571 1 66.8756661189 4.287493051 1.60547516359
5604 1 69.6176256838 4.29135271479 0.880548069322
6049 1 66.8785519227 7.1448326198 1.60444704079
6081 1 68.6117061793 5.71389264617 2.62412787931
6082 1 69.6176572203 7.13778284898 0.879524126155
5635 1 73.0994979079 4.31134733512 2.91511031797
6113 1 73.0962038687 7.11191171779 2.91657541693
6114 1 71.366315701 5.71267726887 1.89536957479
5476 1 72.3243140531 4.27597155923 0.14213667659
5954 1 72.3218704958 7.14857092102 0.140428116811
5602 1 70.357375382 4.29661828194 3.63994457726
6080 1 70.3558608936 7.12812835516 3.6406499194
5667 1 75.7660845965 4.30966311674 2.20984512363
6145 1 75.7588804893 7.11050024266 2.21139695526
6146 2 74.0285318706 5.71058488342 1.0449396513
6176 1 76.7548572438 5.70785317141 0.465323253613
6174 1 77.4898643855 5.71430748888 3.23366834973
5697 1 78.5049375484 4.3029896226 1.48071273839
6175 1 78.4878726824 7.12504154026 1.48306926045
6196 1 80.2392387346 5.72036389143 2.50860871814
6197 1 81.2013217356 7.15899962042 0.760764501682
5719 1 81.2363042564 4.30125967283 0.762005746351
5605 1 83.904158324 4.37016997953 0.0732848967278
5730 1 84.6793989743 4.37726591841 2.80107519614
6208 1 84.7188797361 7.13818613361 2.76324237308
6209 1 82.9359364953 5.74736572683 1.79748198756
6195 1 81.9649311698 7.15529436206 3.53367160414
5717 1 81.9977872407 4.31385951521 3.53436311235
6083 2 83.8886413882 7.07628820547 0.0217237107323
479 1 88.6384448375 5.58088596453 2.44029927734
6213 1 87.5099345338 7.63800510243 1.63002344128
6214 1 85.8147398285 5.74099310986 1.02643770153
6212 1 86.497448429 5.75812777121 3.62627204825
1436 1 2.94526256821 8.56465630587 0.668960478673
1925 1 2.95565367569 11.4028189479 0.674291690043
1923 1 2.09456085181 11.3667009955 3.45850456161
1445 1 2.04526321484 8.64138763386 3.46563654873
1915 1 1.00895596784 9.92969512853 1.61616042432
1446 1 3.84756694118 9.99782125485 2.39659467126
1463 1 6.63779129137 10.0376155922 3.07002893921
1464 1 5.64433350369 8.56367679827 1.36917694629
1942 1 5.57774125577 11.4342480613 1.34726277309
1465 1 7.36327972095 9.99022047198 0.318377783429
1490 1 8.3992504214 8.57410600952 2.05277167214
1491 1 10.1210255243 9.98682371151 1.04632831312
1968 1 8.36600714099 11.4309482648 2.05571394466
1999 1 11.1098327981 11.4267666916 2.78187398151
1521 1 11.1094728226 8.55523465551 2.77997654747
1522 1 12.8408316664 9.98135335425 1.77113265232
1553 1 13.8302834879 8.55392461779 3.50578289635
1555 1 14.5741870433 8.55200796713 0.759513455212
2031 1 13.8315466356 11.4002063022 3.50318594146
2033 1 14.581720744 11.4053549224 0.760806574005
1523 1 11.8501348139 8.53990591745 0.0327322958517
2001 1 11.8543086011 11.4064065443 0.02415297626
1554 1 15.579466978 9.99978153999 2.52713003469
1585 1 18.2767755474 9.98504088145 3.24278036253
1586 1 17.2935313702 8.55047377679 1.47791502129
2064 1 17.3011538659 11.4053870114 1.49927794143
1587 1 19.0226377519 9.96972890811 0.448110444378
1618 1 20.0141839744 8.5472148175 2.1925609474
1619 1 21.754080377 9.96520407335 1.16987588837
2096 1 20.0134068274 11.3929191082 2.20443734499
1649 1 22.7622906764 8.54484775745 2.91421843136
1650 1 24.5051221375 9.96203022267 1.89617094577
2127 1 22.766681297 11.3860645475 2.91479057776
2129 1 23.4974519496 11.3837217328 0.14925019398
1651 1 23.4945262996 8.53822545061 0.149518858215
1681 1 25.517785817 8.54141836255 3.6411483022
2159 1 25.5215297485 11.3848936435 3.64049165043
1682 1 27.2592974686 9.95948381721 2.62667499253
1683 1 26.2438578048 8.53711095489 0.881358990972
1715 1 28.9978108951 8.53702779977 1.61455635886
2161 1 26.2467424511 11.380477406 0.880462778921
2193 1 29.0021006993 11.3718464288 1.61339557546
1714 1 30.0277560832 9.95372058238 3.35939515573
1716 1 30.7332720855 9.94637106911 0.586240665797
1747 1 31.7326225877 8.51542655515 2.31745444155
2225 1 31.7342502443 11.3790699698 2.31588829046
1748 1 33.473477175 9.94000261106 1.31062587117
1778 1 34.5014191289 8.51090149747 3.04589672797
1779 1 36.2318752886 9.92673426495 2.04214981417
2256 1 34.5006549347 11.3644231128 3.04879683268
2258 1 35.2116155132 11.3437830776 0.293043631036
1780 1 35.2017802122 8.51686744961 0.296168898325
1810 1 39.0371451004 9.87580025832 2.80121176128
1811 1 37.9666504482 8.50256419464 1.02657597904
2289 1 37.9835690987 11.3219044462 1.0333075809
1843 1 40.7491359087 8.44094328577 1.669849241
2321 1 40.7389110096 11.2830208253 1.75620882544
1844 1 42.4449721355 9.80627083921 0.642415376891
2352 1 43.3206682795 11.1480193773 2.42644843026
1874 1 43.8047971206 8.25063587035 1.99211608645
1842 1 41.7983592417 9.73175347183 3.46755765948
5856 2 47.3470052017 9.00085967588 0.627912508345
6695 1 45.36753216 9.9146289038 1.08283337957
6334 1 47.7426227978 8.50397970906 2.66083830928
6812 1 47.8828519462 11.2727537533 1.94643434074
6333 1 49.8528142686 10.0223422277 3.02510700837
6335 1 49.3152141303 9.96422153438 0.423204940319
6367 2 51.0726579726 8.59045418622 1.4994005961
6845 1 50.8704879964 11.4612418188 1.34212218119
6366 1 52.6102903106 10.0598268827 2.42996305275
6398 1 55.2716573944 10.0413206586 1.7149222068
6399 1 53.5887437894 8.60511619733 0.682216105441
6877 1 53.5536912379 11.4760584051 0.67601928664
6875 1 54.2744622792 11.4798140057 3.45230409239
6397 1 54.3087684594 8.6076725652 3.46152542909
6430 1 56.9771119067 8.59047934788 2.75150006885
6431 1 57.9686112628 10.0270783414 1.00534099096
6908 1 56.9756234741 11.474868118 2.74342884981
6462 1 61.4167606209 10.0188366521 3.05259842564
6463 1 59.6922992122 8.58996383729 2.03196105391
6464 1 60.6917234828 10.022020406 0.287869197591
6496 1 62.4180064871 8.58550593839 1.30975590358
6941 1 59.6899969536 11.4573181023 2.02969904432
6974 1 62.4195569345 11.4525831208 1.31251414111
6495 1 64.1452909648 10.0116243005 2.33003695034
6528 1 65.1475611847 8.57936219099 0.586339797669
7006 1 65.1482518481 11.4491171425 0.597569396747
6526 1 65.875769601 8.57532195466 3.34809775032
7004 1 65.8702051108 11.4466077997 3.33824456915
6527 1 66.8798114149 10.0034421763 1.60490160701
6559 1 68.6140218147 8.56561813965 2.62461352065
6560 1 69.6177897017 9.99123065561 0.881268364816
7037 1 68.6095123291 11.4279381804 2.62153654881
6591 1 73.0803735618 9.97342974315 2.92188072094
6592 1 71.3604196075 8.54737304443 1.90455722341
7070 1 71.3499702567 11.4126501989 1.9021079908
6432 1 72.3419468835 9.98497328909 0.154109388973
6558 1 70.3449796517 9.98795680433 3.64235749245
6623 1 75.7781714684 9.97223704063 2.2081624797
6624 1 74.0628688772 8.54213695839 1.17741998729
6654 1 76.7601454862 8.54336075051 0.470049726166
7102 1 74.0657613559 11.4151965926 1.17853857786
7132 1 76.7812985489 11.4063525146 0.458298610944
7130 1 77.5169769234 11.4058703174 3.2304481243
6652 1 77.4938893705 8.54296182507 3.22725678102
6653 1 78.4996953003 9.97377570545 1.48209769046
6674 1 80.2213607699 8.55604867342 2.51626723634
7152 1 80.2437755932 11.3946745135 2.51750697356
6675 1 81.2130228132 9.94492230371 0.753873514901
6686 1 84.6741591298 9.99299483107 2.83500972198
6687 1 82.9402252441 8.55578282384 1.79888779965
7165 1 82.9346931089 11.3873726402 1.82371440978
6673 1 81.9696769602 9.96886862493 3.54857480479
6561 1 83.8623716874 9.95209963656 0.0321566143085
6691 2 87.1977498137 10.0891344739 2.11095271693
6692 1 85.4840976731 8.55041459796 1.02752277108
7170 1 85.5082683302 11.4224518901 1.11549775728
1914 2 1.12267085439 12.6686224456 1.8239330182
2392 2 1.26287421463 15.8600080862 1.58472591817
2401 1 2.07905621468 14.3507362559 3.36368661831
2403 1 2.70754480256 14.2563851293 0.43573608078
2402 1 3.78467824427 15.7380569889 2.03547255981
1924 1 3.76282846063 12.9074963797 2.34982674574
1941 1 6.57670617668 12.8629528728 3.07234213683
2419 1 6.55846844854 15.6986985509 3.01700804236
2420 1 5.56724613946 14.240613656 1.30860067691
2421 1 7.35264763651 15.651016268 0.253791256221
1943 1 7.3583891506 12.8217267745 0.312369072658
1969 1 10.108911489 12.8428590546 1.03713312854
2446 1 8.33831220738 14.2699798744 2.03625905704
2447 1 10.1037713828 15.6791214615 1.01266916394
2477 1 11.1034925118 14.274137926 2.76806003908
2000 1 12.8447806444 12.8364215314 1.76377377783
2478 1 12.8474724716 15.6857685679 1.74715317139
2509 1 13.8288592166 14.2785187881 3.48377906573
2511 1 14.5876924656 14.2480398395 0.75208087069
2479 1 11.8543848987 14.256908896 0.0115937749089
2032 1 15.5773732283 12.8200610774 2.5273497658
2063 1 18.2894869128 12.821157501 3.24811515039
2510 1 15.5818157021 15.6691810647 2.49698251538
2541 1 18.2948857814 15.6693070711 3.21298467396
2542 1 17.3029455139 14.2385947035 1.48347298908
2065 1 19.0313248645 12.8176627936 0.448902880588
2097 1 21.7603219274 12.8100074095 1.17070627608
2543 1 19.0347801654 15.6690144648 0.443371691858
2574 1 20.0287956714 14.2393612609 2.19612554563
2575 1 21.7675441826 15.6637031946 1.16665379706
2128 1 24.5086080551 12.8067816936 1.89600092846
2605 1 22.7725577002 14.2338561323 2.91207107589
2606 1 24.5113311307 15.6569995698 1.8936301441
2607 1 23.5007848973 14.2323020164 0.149133497549
2637 1 25.5254741014 14.2321696284 3.63851982099
2160 1 27.2644540677 12.8006276671 2.62861755601
2638 1 27.2631214994 15.6531915388 2.62457959683
2639 1 26.248353753 14.225992614 0.881507106613
2671 1 29.0004939568 14.2177505606 1.61514829743
2192 1 30.0241935382 12.7830212227 3.36532308076
2194 1 30.7318556738 12.7901672512 0.588900032418
2670 1 30.0143493403 15.6504053357 3.35276277423
2672 1 30.7280753446 15.641368975 0.592952938665
2703 1 31.7449480416 14.2104170947 2.33520421582
2226 1 33.4766964926 12.7783252454 1.31099037957
2257 1 36.2212899012 12.7531352777 2.03891844382
2704 1 33.4725157544 15.6372493755 1.31285369889
2734 1 34.4808498278 14.1978593232 3.05398410423
2735 1 36.2062372685 15.6250209221 2.02565043867
2736 1 35.2059698121 14.1963100528 0.294714008063
2288 1 38.9950386056 12.7421997141 2.7774581142
2766 1 38.9659777296 15.6235251992 2.74296196596
2767 1 37.9408300371 14.1672902893 1.03195398288
2768 1 39.6160802501 15.5950144622 0.026430237839
2799 1 40.6982295073 14.1749845609 1.73864613595
2322 1 42.4267573679 12.7521587327 0.718090106082
2800 1 42.3998866535 15.5582865197 0.663260297418
2830 1 43.5459578583 14.1168912621 2.38396911491
2798 1 41.718393954 15.5858347208 3.46455182524
2320 1 41.7295949463 12.7716107899 3.47047507732
7259 1 45.2295446461 12.2586965814 1.6901908179
6780 2 45.8354673241 14.3366219665 1.1693046293
6778 1 46.1179635499 13.9528457709 3.53230038726
7290 1 48.1507694797 14.2799195839 2.05315263259
6811 1 49.8693706045 12.8250228845 3.00133814605
6813 1 49.0457942151 12.7591922475 0.2913804707
7289 1 49.8433594177 15.7373526361 3.08133548693
7323 1 50.7884095819 14.2953225458 1.34660785664
7291 1 49.1847033459 15.7899521202 0.404520487803
6844 1 52.5463573021 12.8987736846 2.40869940191
6876 1 55.2449554182 12.9207578302 1.71388630371
7322 2 52.50576919 15.7553159604 2.42521670083
7355 1 53.5194033534 14.3604477127 0.684229216755
7353 1 54.2422756295 14.3333132937 3.45116004705
7354 1 55.2181427456 15.7823334464 1.72404562653
6909 1 57.9697222815 12.9029952843 1.00616207221
7386 1 56.9620174821 14.3468952451 2.74396915335
7387 1 57.9635047596 15.7654338679 1.00642168694
6940 1 61.4122670188 12.8843687423 3.05158855142
6942 1 60.6917251227 12.8866678278 0.289893612691
7418 1 61.4128451958 15.7626473087 3.0493286931
7419 1 59.6951671727 14.3311434088 2.03044262621
7420 1 60.6953811698 15.7493876842 0.290124452878
7452 1 62.3983696353 14.3025423132 1.30754822069
6973 1 64.1405710533 12.8873890611 2.33194855088
7451 2 64.008955365 15.7253388447 2.3626823212
7484 1 65.1482411584 14.3096607814 0.613450691985
7482 1 65.8587824365 14.3117344397 3.32570893724
7005 1 66.8785694582 12.870477475 1.60539918045
7038 1 69.6254640172 12.8395717346 0.876137287141
7483 2 67.0209140791 15.5715342608 1.56629994181
7515 1 68.6376934858 14.2604682385 2.63257042395
7516 1 69.6043737156 15.7107077174 0.881203295284
7069 1 73.0695808823 12.8467369522 2.92402902706
7547 1 73.0673238371 15.703561145 2.92200302456
7548 1 71.3368535966 14.2791281884 1.89988730606
6910 1 72.3400109974 12.8485392903 0.154125515303
7388 1 72.3423329924 15.7019426098 0.155901181255
7514 1 70.3267249973 15.7181814549 3.63356854758
7036 1 70.3447160151 12.8455035804 3.64399730536
7101 1 75.796245608 12.8407077571 2.20448059307
7579 1 75.8043847812 15.6949605852 2.20311763406
7580 1 74.0708820546 14.2720532152 1.17871293217
7610 1 76.8014350192 14.2610305433 0.453984338507
7608 1 77.5317387187 14.2635051724 3.22884134481
7131 1 78.5229362265 12.823988955 1.47964992793
7609 1 78.5318610685 15.6912714058 1.48457764811
7630 1 80.2520107859 14.2570524597 2.52104890358
7153 1 81.2175629086 12.8119905365 0.774884274538
7631 1 81.2330301769 15.6877165547 0.784213413062
7643 1 82.9526708256 14.2631702539 1.83111621912
7164 1 84.7119457403 12.8817991216 2.87848584418
7629 1 81.9915679265 15.7008425187 3.54625532483
7151 1 81.9888411433 12.8376357324 3.56236390301
7642 1 84.7727469683 15.6755105867 2.83943025442
7517 1 83.8850909804 15.6506637866 0.0658977858192
7039 1 83.8391703847 12.7998330862 0.0947379225028
7169 1 87.3981071988 12.8327701901 2.03934535534
7647 1 87.3143872004 15.7108505165 1.80500108603
7648 1 85.6295588548 14.168719462 1.06093910905
2393 1 88.4367770746 14.2734427656 0.299715672388
2870 1 1.25629622552 18.3617920482 1.52584429948
3359 1 3.09127977226 19.6993657363 0.459684658985
3348 1 2.17809065985 19.831776746 3.13778346856
2879 1 2.33913712051 17.1384325762 3.48363531226
2391 1 0.0620688271014 16.3695728868 3.54959241845
2880 1 3.90355834323 18.4021450343 2.14629065875
2897 1 6.5995070311 18.4805024937 2.98602252379
2898 1 5.62019465187 17.0879867562 1.19135015311
3376 1 5.6551855278 19.8910755949 1.21413511918
2899 1 7.37284766396 18.5156204944 0.20773727511
2924 1 8.34703868436 17.0951488328 1.98967423339
2925 1 10.0965015841 18.5375202643 0.997645570847
3402 1 8.33351099298 19.957961955 1.98717941608
2955 1 11.105598391 17.1106383833 2.74416812672
3433 1 11.0968353399 19.9666726471 2.74058264121
2956 1 12.843306915 18.5394112217 1.74068403703
2987 1 13.843013371 17.1098992864 3.49063881783
2989 1 14.58496564 17.10655564 0.736461029833
3465 1 13.8378022307 19.968802672 3.48243880488
3467 1 14.5765026427 19.9691467557 0.728318212697
2957 1 11.8479789101 17.1104579518 -0.000501848749032
3435 1 11.8420107072 19.9696557311 -0.00196468111407
2988 1 15.5770022734 18.5369774429 2.47514923652
3019 1 18.3071108599 18.5319718617 3.19949446295
3020 1 17.3069905954 17.103184547 1.46088137097
3498 1 17.3078515587 19.9654349125 1.4536400393
3021 1 19.0390503268 18.5312303344 0.435854106158
3052 1 20.0353595072 17.0971378942 2.18322361834
3053 1 21.7711263493 18.5229322774 1.16189133459
3530 1 20.0404479437 19.9582210502 2.17823951446
3083 1 22.780894596 17.0941285588 2.90479625113
3084 1 24.5122087155 18.5154007857 1.88999300348
3561 1 22.7785432925 19.9507741142 2.90379728358
3085 1 23.5034895936 17.0875219107 0.147298149132
3563 1 23.504485275 19.9485023205 0.145571679579
3593 1 25.5223831831 19.9425374583 3.63182599978
3115 1 25.5261557097 17.0863284954 3.63361158219
3116 1 27.2596454622 18.5098804103 2.61958730594
3117 1 26.2459762064 17.0796093078 0.879239196201
3149 1 28.9942039893 17.0761386065 1.60831413065
3595 1 26.2409251 19.9388944539 0.877027595887
3627 1 28.9873326118 19.941533854 1.60286096863
3148 1 30.0096115374 18.5124920125 3.34215624033
3150 1 30.719560566 18.505571104 0.592433798238
3181 1 31.7404178585 17.0777294687 2.3265677583
3659 1 31.7341661952 19.9568769979 2.31497570893
3182 1 33.4654697736 18.5125085577 1.30932586782
3212 1 34.4796353867 17.0777600953 3.0420708143
3213 1 36.1998576394 18.5203458964 2.01198287306
3690 1 34.4731126646 19.9626800901 3.03209989733
3214 1 35.1954881059 17.0717118939 0.292385919948
3692 1 35.1852702771 19.9571542902 0.28864605303
3244 1 38.9633842283 18.5189812348 2.71011819468
3245 1 37.9249800777 17.0697341302 1.01695278781
3723 1 37.9257235752 19.9738419249 0.99796323426
3246 1 39.6314119296 18.5276954081 0.015310083844
3277 1 40.7071413414 17.0629364377 1.69887687891
3755 1 40.692037039 20.0004633644 1.68621734779
3278 1 42.3857357899 18.5790375606 0.678830335145
3276 1 41.6715576192 18.4936146291 3.40988313204
3786 2 43.2194445017 20.1039157413 2.52163840478
3308 1 43.3302922723 16.9379353943 2.32296751307
7737 2 45.6091298719 17.2944092866 2.49792614713
7735 1 44.8220570517 18.830540075 1.18930077026
7734 1 46.8674498268 19.0412772698 3.1521767386
7768 1 48.0218543445 17.0853434834 2.12148726154
7767 1 49.6359241037 18.7205814575 2.98180229169
7801 1 50.7618491601 17.2537414639 1.40749571763
8279 1 50.6797916887 20.1270347545 1.32062405598
7769 1 48.7760617631 18.8337961862 0.642852632834
7800 1 52.4351803162 18.6981277236 2.41975609065
7832 1 55.1893985771 18.6398257082 1.7266522818
7833 1 53.4746731393 17.2273377161 0.70638013745
8311 1 53.4347814237 20.0874605773 0.697909376647
7831 1 54.1879929661 17.2199879781 3.44256910604
8309 1 54.1657198998 20.0749209239 3.4648579829
7864 1 56.9462323882 17.2008811159 2.74061923882
7865 1 57.9582983735 18.6169139602 1.00461278194
8342 1 56.9449627636 20.0347597808 2.74777774259
7896 2 61.3773361276 18.5981318808 2.9154714829
7897 1 59.6785250947 17.1701458673 2.01510396141
7898 1 60.7032094957 18.5978048748 0.283887602916
7930 1 62.424425472 17.1642040364 1.2947122307
8375 1 59.6793071637 20.0396429499 2.00917928533
8408 1 62.4367416955 20.0195152485 1.28942363792
7929 1 64.1331015287 18.5708888331 2.33260449487
7962 1 65.1885614432 17.1267331915 0.649514863245
8440 1 65.1228034255 20.0077834908 0.592991769582
7960 1 65.8658680497 17.1275331966 3.27482525771
8438 1 65.8452002136 19.9930950428 3.35437855033
7961 2 66.8801843343 18.7061636901 1.60317055965
7993 1 68.5866382044 17.1452079245 2.60418434652
7994 1 69.5956018671 18.561446642 0.883728344465
8471 1 68.6184261689 20.0030703986 2.62980809278
8025 1 73.0684834311 18.5527007445 2.9223527103
8026 1 71.3297588708 17.1335611775 1.89533020934
8504 1 71.3359430164 19.9799669446 1.89969358071
7866 1 72.34458423 18.5517926102 0.155616494579
7992 1 70.3176507896 18.5511914066 3.63178142223
8057 1 75.8055542466 18.5515841775 2.20442564455
8058 1 74.0750710152 17.1245065513 1.17879454108
8088 1 76.8062631069 17.121703759 0.457725950333
8536 1 74.0747284192 19.9780680074 1.17959186825
8566 1 76.8071124258 19.9788329721 0.459238458803
8564 1 77.5362772037 19.9823248297 3.23024229957
8086 1 77.5344375145 17.1236237574 3.22960005294
8087 1 78.537803515 18.5550242497 1.48716965575
8108 1 80.2637451887 17.1286043359 2.51703001133
8586 1 80.2783424193 19.9865671915 2.51654652742
8109 1 81.2657531027 18.5570124276 0.775533452606
8121 1 83.0002072876 17.1228991531 1.81200055968
8599 1 83.029166073 19.9941506379 1.79126503357
8107 1 82.0165674436 18.5580936938 3.53060858255
8120 1 84.7710608308 18.5629323102 2.8220064923
7995 1 83.9327070271 18.5478440304 0.0126690135885
3349 2 88.1807743124 19.6093987641 0.243720544648
8125 1 87.3321764537 18.4088634339 1.98260536826
8126 1 85.5771649867 17.0737102282 1.0357026957
8604 1 85.6535978287 19.9273270444 1.02705345788
3837 1 1.21028665695 21.1619383433 1.2189074785
3835 2 2.15297946049 22.331820623 3.07906306565
3836 1 3.67328655397 24.1962099115 2.16619918108
3358 1 3.86572349041 21.3231159003 2.06270966249
3375 1 6.56852486415 21.3898426529 2.99530100589
3853 1 6.54397552527 24.2143560723 3.01099888564
3854 1 5.59813392709 22.8257023555 1.26486605622
3855 1 7.3315984774 24.2566792547 0.242049370308
3377 1 7.35571045841 21.4020317022 0.222332945274
3403 1 10.0894305448 21.3980537947 1.00181507226
3880 1 8.32900788728 22.8233671561 1.99593524432
3881 1 10.0804703031 24.2633099059 1.01144353371
3911 1 11.0872548739 22.8304221978 2.74543441702
3434 1 12.834378594 21.4000796408 1.74015935562
3912 1 12.8253480641 24.2630982636 1.7443707738
3943 1 13.8322547177 22.8275508083 3.48237476692
3945 1 14.5689039486 22.8307939607 0.728608540688
3913 1 11.8341103207 22.8334931454 0.00279780514382
3466 1 15.5725266054 21.3977838486 2.46960256872
3497 1 18.3095505006 21.3925277049 3.19504167346
3944 1 15.5683818841 24.2566002783 2.47105096674
3975 1 18.3074293836 24.2519519181 3.19534909538
3976 1 17.3053623488 22.8255031542 1.45261702971
3499 1 19.0392800421 21.3925673762 0.433502569118
3531 1 21.7722254646 21.3841814387 1.16070722817
3977 1 19.0362003658 24.2531260104 0.433144507752
4008 1 20.0403369336 22.819354978 2.17726388843
4009 1 21.7704987891 24.245984737 1.16131699557
3562 1 24.5087269173 21.3752694433 1.88987643792
4039 1 22.7760691997 22.8111441223 2.90482895809
4040 1 24.50480319 24.2372960913 1.89137899987
4041 1 23.5030114743 22.8101180321 0.146205092881
4071 1 25.5142823786 22.8015434704 3.63288418578
3594 1 27.2489734428 21.3678173861 2.61745426889