ITEM: TIMESTEP
20000
ITEM: NUMBER OF ATOMS
9560
ITEM: BOX BOUNDS pp pp pp
0.0 88.6430375159
0.0 28.55
0.0 44.3215187579
ITEM: ATOMS id type x y z
2 1 1.41786867278 1.4051239017 1.73327516142
491 1 3.18799963811 2.80624678469 0.818160936996
13 1 3.27511815633 0.152501009871 0.850947400991
481 1 0.257011867614 2.81234272801 0.0824888753517
12 2 3.62004257351 1.73814732892 2.96969471556
29 1 6.50126960191 1.46774338677 3.13616431551
508 2 5.87129256002 3.0423143139 1.22888365368
31 1 7.44693576343 1.42200955109 0.388759051871
57 1 10.1063061618 1.43722413337 1.12499573985
534 1 8.37523179069 2.84382630249 2.16071147161
56 1 8.32963223247 0.0260292741362 2.15727677325
565 1 11.1070796773 2.86902558884 2.87766830482
88 1 12.8133837826 1.42230812832 1.84095354679
597 1 13.7906708106 2.85280150653 3.58150642332
599 1 14.5457800222 2.83354346765 0.818126895623
567 1 11.8510237328 2.85145235519 0.0836962536092
120 1 15.5438139872 1.40597265502 2.56413432286
151 1 18.2991653644 1.3862164261 3.28083296385
630 1 17.2854737545 2.81602092541 1.5357223921
153 1 19.0158106122 1.39320215109 0.504934142095
185 1 21.7684635501 1.37780857788 1.2400717852
662 1 20.0345181114 2.80322554699 2.2556268606
216 1 24.5148046035 1.36810445559 1.97155439455
693 1 22.7798243805 2.79729189343 2.98692573873
695 1 23.5048315673 2.79988659821 0.227100139321
248 1 27.2546311521 1.36282508198 2.69898572332
727 1 26.2442682669 2.79758443244 0.958895588012
759 1 28.9814056408 2.79331385596 1.68491593956
280 1 29.9947241741 1.35228073213 3.41510215368
282 1 30.7029395754 1.35865090312 0.664865079937
791 1 31.711108247 2.78609297041 2.39734006827
314 1 33.4375103586 1.35213050372 1.37272904466
345 1 36.1902681319 1.33663572786 2.05990300779
822 1 34.4402739192 2.78008155338 3.09908202892
824 1 35.1649346319 2.78359326264 0.349025745001
376 1 38.9348935955 1.3975234529 2.71967832172
855 1 37.8061513403 2.89135754144 1.07090099381
378 2 39.5126312496 1.80433762124 0.113914994525
887 1 40.6104600156 3.04785000619 1.76911403798
410 1 41.9662523723 1.21935053202 0.831154084291
918 1 43.3610986851 2.7299285632 2.44661606132
408 1 41.5571726339 1.45440327259 3.42448188883
4866 1 45.270537619 0.903290118933 1.74451290589
5824 2 45.6892550127 2.73954155568 3.16008039768
5344 2 48.6585064083 1.71322172372 2.06465115176
4899 1 49.8241860694 0.645790568633 3.62243116578
5411 1 50.6411597606 2.79046026873 1.40495219043
4933 1 50.521252322 0.0442320175963 1.27384797163
4932 1 52.3952489145 1.40205951691 2.41755848938
4964 1 55.2051262003 1.47085114448 1.68682014402
5443 1 53.4317347266 2.85364679934 0.662930840122
5441 1 54.1911513502 2.8991793245 3.40328589419
4965 1 53.4938667037 0.159930981227 0.54116553499
4963 1 54.1474140205 0.026967777262 3.42990852623
4997 1 57.9678046578 1.45480132766 0.949418935044
5474 1 56.9648219628 2.8685417969 2.69485026135
4996 1 56.9385171615 0.0467110528418 2.69824387651
5028 1 61.4371076455 1.46715447477 2.94322182656
5030 1 60.700699261 1.45456415478 0.203135083872
5507 1 59.6913769323 2.86706427287 1.96575865904
5540 1 62.4293440276 2.884716781 1.21605380218
5029 1 59.6988904476 0.0340038204616 1.95731323762
5062 1 62.4297120063 0.0271218574597 1.20691443275
5061 1 64.1563679359 1.45498890086 2.23112546706
5572 1 65.1584170457 2.88573022597 0.488366526366
5570 1 65.8832024244 2.88469296446 3.25272738119
5092 1 65.8854204664 0.0269136003126 3.25016301571
5094 1 65.1547046238 0.0246740714614 0.481842346238
5093 1 66.8873453998 1.45558223856 1.50692788782
5126 1 69.6268037913 1.45964075903 0.787696739723
5603 1 68.6158686775 2.88633805646 2.52818746024
5125 1 68.6191935513 0.0265387131049 2.52775838146
5157 1 73.0862875901 1.46058101131 2.82237166625
5636 1 71.3585949464 2.89462459545 1.80390822421
4998 1 72.3647191825 1.46312487052 0.0684567152597
5124 1 70.3478459234 1.45609719042 3.54580006772
5158 1 71.3581388284 0.027118507828 1.8062649698
5189 1 75.8216391183 1.46532550364 2.10392952861
5668 1 74.0880253966 2.89516801569 1.08479508537
5698 1 76.8170802269 2.91256435005 0.36299929954
5696 1 77.5391907972 2.90011082281 3.12633613645
5220 1 76.8348388779 0.0305503504395 0.370293545767
5190 1 74.0976433105 0.0266305341495 1.08691363434
5218 1 77.5590332861 0.0208536799944 3.12796404339
5219 1 78.5564221064 1.46793197582 1.38907594274
5718 1 80.2685937848 2.9058956493 2.41387976643
5240 1 80.3021241998 0.0181354676806 2.41071382234
5241 1 81.2802134479 1.4789057469 0.665342969147
5731 1 82.9503268023 2.91369137702 1.67759318996
5239 1 82.0040415984 1.45420498435 3.43629381026
5252 1 84.6630046137 1.42401178912 2.71620791078
5253 1 83.00199853 0.0342418891093 1.68949041296
1 1 88.5440489038 2.50218613542 2.98823940121
5736 2 85.4483676632 3.03975431442 1.16385109499
5258 1 87.2190103765 1.20367103171 1.45304649138
5734 1 86.2775356127 2.86281158995 3.68708375679
480 1 1.36158060338 4.19866993358 1.60071162533
958 1 1.2064918077 7.14298023407 1.89325887049
969 1 3.03537953357 5.74202076389 0.88465330391
967 1 2.43335560181 5.75850817489 3.50831254526
479 1 0.175103511097 5.32084035282 3.13129308833
959 1 0.011757350003 5.74615257716 0.154833724118
490 1 4.05784682234 4.24282152249 2.57362243746
968 1 4.03580967151 7.15333375314 2.51434459439
507 1 6.65474939802 4.24986509885 3.21447319522
985 1 6.77056576853 7.06389586542 3.18149899751
986 1 5.72520765654 5.69852733732 1.44901419536
987 1 7.4694548775 7.1276045469 0.448238948252
509 1 7.53095200593 4.3341675104 0.407002834734
535 1 10.1383770888 4.25706469273 1.10415204901
1012 1 8.47663452951 5.67324073682 2.18021408885
1013 1 10.168029566 7.07901296383 1.11069374463
1043 2 11.1147252776 5.65747886573 2.86629181972
566 1 12.8219408642 4.26587044768 1.82042010645
1044 1 12.8327276603 7.05546220126 1.82276736218
1075 1 13.8085001691 5.65472559116 3.57491413227
1077 1 14.5531431497 5.65579742837 0.79907054685
598 1 15.5460170221 4.24338786233 2.55412438182
629 1 18.3061795369 4.22669583197 3.2770199989
1076 1 15.5547271092 7.06340618923 2.55453754558
1107 1 18.3075146893 7.07438473133 3.27672906622
1108 1 17.2942873779 5.6492069831 1.52991937724
631 1 19.0189828496 4.22480718849 0.501320600043
663 1 21.7688415706 4.22537733901 1.23975241832
1109 1 19.0233018345 7.06845942363 0.504274314341
1140 1 20.0352494248 5.64853815739 2.25453287624
1141 1 21.7654324824 7.07661083627 1.24117063987
694 1 24.5115217887 4.22520520696 1.97357485663
1171 1 22.7766633959 5.65066918065 2.98804021799
1172 1 24.5064494973 7.08138845621 1.97529789727
1173 1 23.5014549607 5.65306776276 0.227552051765
726 1 27.2530965673 4.22521232284 2.70325727429
1204 1 27.2500404937 7.08684429369 2.70748695022
1205 1 26.2412448428 5.65663501435 0.961253176224
1237 1 28.97949344 5.662310413 1.69248243794
758 1 29.990918338 4.22493027073 3.42658198148
760 1 30.7003987764 4.22918926081 0.667725666053
1236 1 29.9970500157 7.1022792775 3.4404964363
1238 1 30.6968448571 7.09465181401 0.665557737473
1269 1 31.7079574668 5.66588513462 2.40656896016
792 1 33.4277594049 4.22556363319 1.37822206945
823 1 36.1199444038 4.26475293863 2.0951277153
1270 1 33.4176493297 7.10916446428 1.38025218186
1300 1 34.4127144578 5.68473285127 3.11748019852
1301 1 36.1566663788 7.11301988851 2.0908732709
1302 1 35.1207672011 5.68887302184 0.363310475384
854 1 38.8126397151 4.27634401676 2.81967882518
1332 1 38.8908765896 7.07624733169 2.80506561424
1333 1 37.8765940637 5.68713955434 1.05238313577
1365 1 40.5638397788 5.55278390617 1.69794386806
886 1 41.6667725993 4.23211426527 3.51757706904
1396 1 42.2902430746 4.21187741398 0.602567681959
1364 2 41.4288633523 6.9734905988 3.20000094846
1366 1 42.1505309184 6.9527040281 0.668422273645
6217 1 43.3930393669 5.63534327715 2.61665172244
5346 2 44.4826016137 4.4329806733 0.889503541399
6302 1 45.1741336751 6.87256476303 1.46242284453
5822 2 47.1929958452 5.09250720361 1.83448998309
6334 1 47.4028557755 7.02266825415 2.96652139714
5377 2 50.0291619355 4.46618467405 2.983558727
5739 1 49.0146466708 4.50560953143 0.314772824095
5855 1 49.9254723081 7.18331632809 3.01408516788
5889 1 50.8569771128 5.76896681111 1.27118691419
5857 1 49.0454413412 7.26255117845 0.445258169461
5410 1 52.4690876048 4.27125294294 2.3928559733
5442 1 55.2199044137 4.29525277195 1.65615669875
5888 1 52.5780995532 7.18428536789 2.35036796363
5920 1 55.233069707 7.15265247475 1.64612436492
5921 1 53.4805930321 5.69685121255 0.628244391167
5919 1 54.2222687412 5.71775569343 3.40542966051
5475 1 57.9689553065 4.306903357 0.939273118052
5952 1 56.9619624738 5.73314661771 2.67158963014
5953 1 57.9660610512 7.17035968193 0.926769819736
5951 1 58.6921940145 7.17644649197 3.68238470949
5506 1 61.4212724671 4.30739011634 2.96487457648
5508 1 60.6973333438 4.31085703623 0.209285301597
5984 1 61.4217159267 7.17795460606 2.95766033686
5985 1 59.6941727676 5.74030097039 1.94928580859
5986 1 60.6983841168 7.17614906901 0.202261217132
6018 1 62.4253041049 5.74432036823 1.21872409382
5539 1 64.1552736765 4.31572450991 2.23390932317
6017 1 64.1515958185 7.17770613501 2.23259723204
6050 1 65.1571441555 5.74688528113 0.490234389131
6048 1 65.8793195436 5.74691095469 3.25231764931
5571 1 66.8857740223 4.31616898057 1.50894636299
5604 1 69.6246689719 4.32039786776 0.787170913467
6049 1 66.8818827214 7.17832018281 1.50738648072
6081 1 68.6109096686 5.74792009374 2.5257616431
6082 1 69.6207937261 7.17763838553 0.781595117252
5635 1 73.0740068728 4.31651149499 2.82645548663
6113 1 73.0656472666 7.18292654259 2.82235375088
6114 1 71.3533090417 5.74889375406 1.79994649137
5476 1 72.3519771585 4.31840725027 0.0620727782111
5954 1 72.3433866671 7.18234774822 0.0558933563311
5602 1 70.3435156443 4.31919700188 3.54164577138
6080 1 70.3380108758 7.1782824851 3.53578465034
5667 1 75.8110601714 4.32257207919 2.10633855584
6145 1 75.7983661906 7.1833358919 2.10729909216
6146 2 74.0749529261 5.75216912062 1.08160053083
6176 1 76.7985261668 5.7651296493 0.362814558525
6174 1 77.5151280819 5.75468602011 3.13452182982
5697 1 78.5367065273 4.34592814299 1.38348516966
6175 1 78.5033124603 7.16741745017 1.41927550717
6196 1 80.2549013769 5.77109361311 2.42464303737
5719 1 81.2522645723 4.36025735719 0.660691505668
6197 1 81.2482029092 7.20299898323 0.69063907998
5730 1 84.6120679722 4.37873498572 2.77080352952
6208 1 84.7504736815 7.19675431224 2.71371110871
6209 1 82.9463660206 5.81222279907 1.71039978315
6195 1 81.9784351798 7.21491514451 3.46262297614
5717 1 81.9855607019 4.34567838984 3.4432376007
5735 1 87.3772846547 4.1434866751 1.7359106626
6213 2 87.3776445039 6.96852215273 1.97473822427
6214 1 85.6599601562 5.71561223835 0.992748927369
1436 1 2.90163083438 8.59639452433 0.873077152275
1925 1 2.98060425384 11.3389588027 0.855090851688
1915 1 1.26258084544 9.94737843005 2.04507488506
1445 1 2.18008508569 8.44631664466 3.65742411129
1446 1 3.9892610158 9.90184357823 2.57212176725
1463 1 6.74744671629 9.97725764872 3.17666908008
1464 1 5.73827454851 8.55012255648 1.48685652505
1942 1 5.64370975276 11.3791578035 1.47786456806
1465 1 7.41865378316 9.95664613889 0.416609791183
1490 1 8.47207001173 8.51657135108 2.16897226798
1491 1 10.1654554836 9.93008526944 1.13219558552
1968 1 8.43084292735 11.3853729693 2.15161835344
1999 1 11.1556441683 11.3639999024 2.87831508408
1521 1 11.1424491728 8.46618556478 2.88021466705
1522 1 12.8487697454 9.91107372197 1.84164290687
1553 1 13.8134402342 8.46245356448 3.5790259339
1555 1 14.5613214018 8.48588290481 0.815592881909
2031 1 13.8406852092 11.3328120218 3.57327487695
2033 1 14.5809105427 11.358848332 0.831457868749
1523 1 11.8692882394 8.4898974428 0.084674105792
2001 1 11.8756236669 11.3690417507 0.10796682698
1554 1 15.561699706 9.91401342565 2.56716616845
1585 1 18.3015571384 9.92831034746 3.28476411853
1586 1 17.2956175247 8.49615977308 1.53736233114
2064 1 17.2918912763 11.3596246 1.55248034077
1587 1 19.0258230794 9.93318376354 0.522893725907
1618 1 20.032781809 8.50185853879 2.25938383511
1619 1 21.7603800618 9.93651357466 1.24946600654
2096 1 20.0234301666 11.3670787066 2.27288115982
1649 1 22.7710081748 8.50666826693 2.99102196752
1650 1 24.5019261676 9.93767368404 1.97885645828
2127 1 22.7673839682 11.3646840619 2.99721055801
2129 1 23.4935099673 11.3653817097 0.235338076451
1651 1 23.496018449 8.50937038666 0.230878185344
1682 1 27.2460480232 9.93888485465 2.70855708869
1683 1 26.2360527407 8.51278740865 0.962144335559
1715 1 28.9776792218 8.51969704881 1.6919020841
2161 1 26.2346830247 11.3669907175 0.966080278738
2193 1 28.9779129023 11.3647782226 1.69343800859
1714 1 30.0019797553 9.94005216817 3.43627544306
1716 1 30.6985867006 9.94906782334 0.660890923322
1747 1 31.6954246084 8.51451454954 2.3878890873
2225 1 31.7027203489 11.3789378347 2.38770309254
1748 1 33.4349824658 9.95619595019 1.37813145114
1778 1 34.4503040373 8.5191354164 3.10888868099
1779 1 36.1907024948 9.94510795135 2.10098227441
2256 1 34.4704639798 11.3726752441 3.11348755076
2258 1 35.1800571999 11.3790633713 0.36144100873
1780 1 35.1491729834 8.54212419584 0.361123678
1810 1 38.9300482933 9.91732790031 2.8471296959
1811 1 37.9231001185 8.51827118528 1.06919489613
2289 1 37.9469916365 11.3682649188 1.08973741692
1843 1 40.5987366497 8.54495613107 1.74886159557
1812 1 39.6514259959 9.96850251824 0.0447771397608
2321 1 40.7305984275 11.3119900223 1.84010114042
1844 1 42.4712134803 9.9779491718 0.734618150346
2352 1 43.3940741648 11.120959335 2.68957550561
1874 1 43.4089171826 8.29359528818 2.29525855964
1842 1 41.5795124799 9.78653069986 3.60421787824
5856 2 47.0649575926 8.49855927775 1.12656011407
6695 1 45.1816541735 9.98113999111 0.999076774869
6215 2 45.7010027453 11.3177380152 3.1313473096
6812 2 48.4840703444 11.5513029043 1.98062023355
6333 1 49.9413745809 9.99041486312 2.99639887656
6335 1 49.018125659 9.9562412199 0.339457008176
6367 1 50.8988878237 8.60759504615 1.27976940096
6845 1 50.8808473281 11.4568625035 1.27122694983
6366 1 52.5682474477 10.0527860487 2.35034661447
6398 1 55.2540081804 10.0501570949 1.63314147964
6399 1 53.5433793578 8.60659166352 0.60326745865
6877 1 53.5403242628 11.4985072078 0.604142012203
6875 1 54.2692123141 11.4886831181 3.380796285
6397 1 54.2787495733 8.61964069746 3.38089123083
6430 1 56.965650536 8.60563535738 2.66048524525
6431 1 57.9668205448 10.0446630879 0.918798797758
6908 1 56.9679189154 11.4908578124 2.65139597237
6429 1 58.6936603871 10.0490862897 3.67342802067
6462 1 61.4248957209 10.0483828522 2.94797859785
6463 1 59.6943564969 8.61122634167 1.93819556802
6464 1 60.7028202387 10.0460512561 0.197382803719
6496 1 62.425863259 8.61053567441 1.21327587047
6941 1 59.6996306609 11.4840165206 1.93051756896
6974 1 62.4359901752 11.4892041405 1.20618186601
6495 1 64.1500940245 10.0443169407 2.22751207417
6528 1 65.1539594397 8.61062510953 0.487719369472
7006 1 65.1419118855 11.4879666732 0.486804554497
6526 1 65.8757644538 8.61112636551 3.24747322986
7004 1 65.869929659 11.4796123701 3.24224926326
6527 1 66.8747556873 10.0462765203 1.50084384487
6559 1 68.607305816 8.61230280004 2.51794500637
6560 1 69.6145109634 10.0440966398 0.770409550933
7037 1 68.5994952086 11.4775049125 2.51048963249
6591 1 73.0664694922 10.0365860444 2.80995287717
6592 1 71.3469872769 8.6055470233 1.79198354436
7070 1 71.3397081083 11.4714493206 1.78476211756
6432 1 72.3471484542 10.0382052567 0.0449359885299
6558 1 70.3320386594 10.0422409671 3.53062320149
6623 1 75.7942811588 10.0310854101 2.09686598693
6624 1 74.0690580222 8.60574551606 1.07575784448
6654 1 76.7948946259 8.59845500273 0.370076659613
7102 1 74.0736289167 11.4630680478 1.06303472266
7132 1 76.8046679564 11.4402702146 0.34102475541
7130 1 77.5283144278 11.4593220683 3.12731703118
6652 1 77.5103253792 8.60635083476 3.13853779835
6653 1 78.5070865487 10.039060414 1.41026406294
6674 1 80.2479875795 8.61604180957 2.43264061014
7152 1 80.271564442 11.4311319671 2.41176426941
6675 1 81.2705252637 9.99352913657 0.657330289671
6686 1 84.7648213388 10.0504852574 2.72296015276
6687 1 83.0093905025 8.58977628521 1.71284327399
7165 1 82.9539733238 11.394079624 1.68412222449
6673 1 82.0081495501 10.0242814313 3.45243363087
1437 1 88.5414846887 8.63673008541 0.384640799183
6691 2 87.6324746115 10.1421394604 2.31506843575
6692 1 85.7753902225 8.68643831609 1.05376019818
7170 2 85.3877344942 11.4927243882 0.788602561342
1914 2 1.31751623399 12.5420879692 2.09116998863
2392 2 1.23193326848 15.820721709 1.94938400323
2401 1 2.184794751 14.3226004523 3.52513486002
2403 1 2.8512421565 14.2003522027 0.756122596073
2402 1 3.84449773927 15.6895717754 2.40494855469
1924 1 3.87023580242 12.8226091116 2.52613921878
1941 1 6.66070720208 12.8245774715 3.17573038247
2419 1 6.67820364126 15.6276675952 3.13997946849
2420 1 5.60784779836 14.21845195 1.44556553781
1943 1 7.37595573848 12.7908007019 0.415298627124
2421 1 7.38803460912 15.6306528608 0.403329401133
1969 1 10.1542696525 12.796881819 1.1324265182
2446 1 8.41232933964 14.2145889329 2.13837739099
2447 1 10.1499652785 15.6426392493 1.12660740399
2477 1 11.1622010166 14.2261399867 2.87887711829
2000 1 12.8810932813 12.8011471327 1.86817515451
2478 1 12.8807493231 15.64987303 1.86638343877
2509 1 13.8827340338 14.2283048622 3.61783449098
2511 1 14.5945071399 14.2253641413 0.84341102081
2479 1 11.8780992057 14.2231305079 0.112587828786
2032 1 15.570807494 12.7885740362 2.58869316081
2063 1 18.2773798026 12.7990977783 3.30196877497
2510 1 15.5748032359 15.6595280706 2.58696112842
2541 1 18.2791903937 15.6446008662 3.3019256159
2542 1 17.2864698581 14.2227492908 1.56037316751
2065 1 19.021350039 12.7937837899 0.529980418745
2097 1 21.758377208 12.7928905044 1.25518687943
2543 1 19.0228039193 15.6497307935 0.530057161684
2574 1 20.0207269866 14.2203654106 2.27669257715
2575 1 21.7579376489 15.6458652335 1.25599883984
2128 1 24.5025063423 12.7928036292 1.98436076513
2605 1 22.7674799777 14.2192753333 3.00037339112
2606 1 24.5038631525 15.6439308763 1.98619705078
2607 1 23.4930298712 14.2180795181 0.238214216219
2160 1 27.2511116073 12.7901874092 2.71773886885
2638 1 27.2595422284 15.6454516277 2.72211632411
2639 1 26.2375213957 14.217408721 0.971547855031
2671 1 28.9798894205 14.2090404896 1.69447089816
2192 1 29.9998750756 12.773449312 3.4448716988
2194 1 30.7039034128 12.7921304728 0.662324937291
2670 1 29.9868013661 15.6170536737 3.41547585228
2672 1 30.7110473667 15.6321592905 0.666234021964
2703 1 31.7210034978 14.2016932039 2.40716496979
2226 1 33.4502142156 12.787744623 1.37949420999
2257 1 36.2076598698 12.7785575682 2.10665044831
2704 1 33.4594663526 15.6232955948 1.38049596337
2734 1 34.4580198983 14.1881323008 3.12526175933
2735 1 36.2110474146 15.5983864447 2.0964504308
2736 1 35.2014161972 14.2051292956 0.354569247611
2288 1 38.9772475056 12.7583365062 2.83936381881
2766 1 38.9748683662 15.5773246493 2.82407262597
2767 1 37.9766116652 14.1794144417 1.07721808775
2768 1 39.7604497676 15.5574371471 0.0438709303382
2290 1 39.7414198388 12.7583940229 0.0615087208178
2799 1 40.7531577816 14.1424606938 1.84324144552
2322 1 42.540985469 12.7223349221 0.939880290683
2800 1 42.4130828426 15.5729967962 0.746858734596
2830 1 43.5364147733 14.2348894113 2.58550386763
2798 1 41.7339202611 15.5815372619 3.59601555631
2320 1 41.8059881398 12.7013845782 3.63333077568
7259 1 44.9513264818 12.5202694685 1.49828743692
6780 2 46.060817044 14.4175595185 1.60472380242
7290 1 48.275096592 14.2594405877 1.9891482254
6811 1 50.0065644125 12.9426567413 3.00207756785
6813 1 49.1929758363 12.9016656167 0.223684251194
7289 1 50.0029220572 15.7089620262 3.00229824697
7323 1 50.9413927598 14.3401255051 1.23673404111
7291 1 49.2343349919 15.7605173839 0.203987006796
6844 1 52.5481130576 12.8977202982 2.34735695587
6876 1 55.2283847967 12.937755276 1.62672991275
7322 2 52.5807274208 15.7879665038 2.46316737941
7355 1 53.4700951371 14.3620421063 0.595228392666
7353 1 54.2568756048 14.3319587856 3.38439860976
7354 1 55.2018151219 15.7718408417 1.62925894231
6909 1 57.9722560158 12.9221256511 0.914519068988
7386 1 56.961132555 14.3531835932 2.64940846479
7387 1 57.9744142799 15.7731056302 0.914513373538
6907 1 58.6989685684 12.9198290063 3.66614764628
7385 1 58.7013930441 15.7761884242 3.66367762941
6940 1 61.4382084668 12.9232799012 2.93328830119
6942 1 60.7200338609 12.9225100382 0.198246789137
7418 1 61.4487753486 15.7693416441 2.93636297273
7419 1 59.7154751934 14.3536335643 1.92681492377
7420 1 60.7316624161 15.7693473815 0.193297142834
7452 1 62.4518983966 14.3613443115 1.20228742701
6973 1 64.1495430134 12.9245024376 2.22450147333
7451 2 64.1832096659 15.7534365673 2.35450497972
7484 1 65.1269889355 14.3574813685 0.491278481855
7482 1 65.8891042387 14.3260005979 3.25134072815
7005 1 66.8562772573 12.9176349974 1.49611959134
7038 1 69.60878828 12.9041590025 0.764445729462
7483 1 66.850607503 15.7612565222 1.50440330999
7515 1 68.593766485 14.3348340338 2.51030540138
7516 1 69.6070390588 15.7518048092 0.767881426954
7069 1 73.0690562399 12.8934620438 2.80699988933
7547 1 73.0775327509 15.7397515541 2.80705060588
7548 1 71.3413832761 14.3219038937 1.78301390048
6910 1 72.3495902109 12.8939012225 0.0316847128954
7388 1 72.3578786377 15.7323867198 0.0334896093826
7514 1 70.3299826582 15.7518455419 3.52933869183
7036 1 70.3290854069 12.9006124805 3.52915061656
7101 1 75.8100698046 12.8815272696 2.08671604977
7579 1 75.8274436654 15.7253757721 2.08653959983
7580 1 74.0846687666 14.3083157631 1.0584344114
7610 1 76.8245813983 14.2848397723 0.333470999165
7608 1 77.5548417774 14.297389252 3.11411979545
7131 1 78.54994768 12.8524697226 1.36632461085
7609 1 78.565469255 15.7125368377 1.37250434519
7630 1 80.2959175026 14.2784287855 2.40829767887
7153 1 81.2436303939 12.8196326902 0.642960536045
7631 1 81.2606333586 15.7056003117 0.656249778331
7643 1 82.9437235654 14.2575903826 1.71676460376
7164 1 84.6848165921 12.7881646645 2.71486331859
7629 1 82.0521288196 15.715281469 3.45727418777
7151 1 82.0336369555 12.8411187711 3.45839806336
7642 1 84.6885648501 15.6878629722 2.72204458957
7169 1 87.4050536036 12.7324796306 1.98141855584
7647 1 87.5087367856 15.640874236 1.71448022421
7648 1 85.6220384404 14.1306175455 0.972405279003
7646 1 86.3762790556 14.3953039681 3.52520254458
2870 1 1.28626791642 18.5983531167 1.52260526709
3359 1 3.20244790972 19.9882845895 0.661353525022
3348 1 2.22831627189 19.9105705047 3.18234633161
2881 1 2.87358172233 17.132731526 0.63328064059
2879 1 2.0712557235 17.2119030497 3.51244709907
2877 2 0.190215512538 18.6532616533 3.56943466035
2880 1 3.95603947975 18.4644391708 2.36932230311
2897 1 6.7304540956 18.4900158674 3.1130405039
2898 1 5.66903362279 17.0593388224 1.40745011647
3376 1 5.75067584262 19.9277068507 1.41115961501
2899 1 7.42521409588 18.498089687 0.382620876416
2924 1 8.42322148523 17.0641478043 2.12187847101
2925 1 10.1342374159 18.5252795575 1.11850652138
3402 1 8.40008407531 19.9753849962 2.12112522632
2955 1 11.147122769 17.0876793169 2.86066607237
3433 1 11.1154754966 19.9742488206 2.85514690239
2956 1 12.8535404961 18.5327507323 1.84369269838
2987 1 13.848455291 17.1144790039 3.57210417877
2989 1 14.5841502906 17.0912212224 0.831686925401
3465 1 13.844177391 19.9674874729 3.58401600454
3467 1 14.5743037953 19.9609371522 0.821122241252
2957 1 11.8681727591 17.0847206676 0.111416385819
3435 1 11.8514572143 19.9643101893 0.099948951919
2988 1 15.5753477328 18.5294904582 2.56757121583
3019 1 18.3022875398 18.5185910603 3.28812108661
3020 1 17.2973124785 17.0858078812 1.55192472122
3498 1 17.3010943234 19.9527955116 1.54293489172
3021 1 19.0284441378 18.5123399935 0.526242993877
3052 1 20.0237387731 17.0750288437 2.27463800251
3053 1 21.7608639037 18.5019578852 1.25383971624
3530 1 20.0337896559 19.9409294426 2.26755591619
3083 1 22.7680075558 17.0716368841 2.9993213984
3084 1 24.5037037076 18.4924344608 1.9846264255
3561 1 22.7732985375 19.9285766295 2.99525178361
3085 1 23.4930655462 17.0695655739 0.238128322314
3563 1 23.4965749749 19.9251765095 0.236721490141
3116 1 27.2612718884 18.4836551028 2.71882911836
3117 1 26.2378620679 17.0639993443 0.970090112705
3149 1 28.9850351193 17.0597511248 1.69051018459
3595 1 26.2351251867 19.9082916919 0.969090218753
3627 1 28.9850393454 19.9052374983 1.6865717936
3148 1 29.9952575247 18.4960701146 3.41815614685
3150 1 30.7142425835 18.4751404117 0.664142143192
3181 1 31.7255135508 17.0504464693 2.40090918322
3659 1 31.7286466752 19.9035813422 2.39202129413
3182 1 33.4627247752 18.4637081875 1.37675905267
3212 1 34.4611849454 17.0383640492 3.11867957008
3213 1 36.2074814474 18.4445000287 2.08971849076
3690 1 34.4562892363 19.8853504093 3.11629850935
3214 1 35.2111182259 17.0326639838 0.351706918722
3692 1 35.2000903255 19.8843649196 0.353467959157
3244 1 38.9440351899 18.4306029238 2.78221942777
3245 1 37.9687993831 16.9960014147 1.06309927543
3723 1 37.9393813202 19.8627762384 1.06510861878
3246 1 39.7056895378 18.4177700995 0.0539083023128
3277 1 40.7136164958 17.0099050535 1.80043012832
3755 1 40.7105185311 19.8951722132 1.77220091044
3278 1 42.3774840306 18.4514012752 0.671693605186
3276 1 41.669079281 18.4602975137 3.56562763569
3786 2 43.2232855379 19.9063600296 2.64111392003
3308 1 43.2281954947 17.0487384434 2.47503328971
7737 2 45.3846584228 17.2523887307 2.42745474689
7735 1 44.7629709506 18.9665676246 1.05110557273
7734 1 47.1085251818 18.6882350949 2.71208678283
7736 2 46.9892051729 19.5851623617 0.425229325253
7768 2 48.4156140805 16.9505068251 1.95767210904
7767 1 49.7789339633 18.6554940985 2.96713990818
7801 1 50.8670417241 17.1935238659 1.27298944288
8279 1 50.7932476175 20.0720174362 1.3360502173
7769 1 49.0730227043 18.6763976453 0.448412106424
7800 1 52.4985305082 18.6228591022 2.34209489016
7832 1 55.2058093362 18.6139798188 1.62430850273
7833 1 53.4748802789 17.1880860924 0.600088098341
8311 1 53.4658291475 20.0416221437 0.603757677146
7831 1 54.245672071 17.2163146714 3.38075163446
8309 1 54.2100152976 20.0534105682 3.37221750002
7864 1 56.9551325091 17.1942718096 2.64728909741
7865 1 57.9766614995 18.6096949671 0.916858568126
8342 1 56.9556584977 20.0374547317 2.65047743237
7863 1 58.6995410813 18.6142818792 3.65892722737
7896 2 61.4179567263 18.6193059007 2.94556462002
7897 1 59.7131099481 17.1802988978 1.92255247519
7898 1 60.7275069394 18.5982886925 0.201016752296
7930 1 62.462883894 17.1588089844 1.1993411654
8375 1 59.6961132123 20.0450159393 1.91809819656
8408 1 62.437881706 20.0254620781 1.20064965182
7929 1 64.1477320828 18.5914414797 2.22206397606
7962 1 65.1140057161 17.1537144077 0.495619582533
8440 1 65.1319202812 20.016716769 0.487263589658
7960 1 65.8808309776 17.1946671633 3.24783482966
8438 1 65.8648415324 20.0235621018 3.24452941616
7961 2 66.8809172605 18.6042514242 1.50117169821
7993 1 68.6033988063 17.167708141 2.51566775888
7994 1 69.6100390971 18.5852893906 0.772768590764
8471 1 68.6147073286 20.0205724951 2.52120350917
8025 1 73.0862803328 18.5835296982 2.81301973373
8026 1 71.3456281947 17.1653582298 1.78550204072
8504 1 71.3500185693 20.005198486 1.79347821821
7866 1 72.3659002494 18.5776757888 0.0462477868835
7992 1 70.3319050979 18.5906204308 3.53145582547
8057 1 75.8380195662 18.5787240509 2.09640089966
8058 1 74.0970752049 17.1527395222 1.0651439638
8088 1 76.8351230742 17.1450124124 0.346628264438
8536 1 74.1025271879 20.0047893179 1.07659389085
8566 1 76.8477913567 20.0061979866 0.361049290346
8086 1 77.5700622019 17.1494328442 3.11826873215
8564 1 77.5834662699 20.0062403992 3.12694032825
8087 1 78.5824473012 18.5781013742 1.38328299175
8108 1 80.313336868 17.1442454759 2.4104567304
8586 1 80.3456055116 20.0027622085 2.41494196731
8109 1 81.3067130853 18.5735745193 0.658607163018
8121 1 83.0112421934 17.1429250306 1.69628319302
8599 1 83.0913065486 19.9757908159 1.7044244242
8107 1 82.0830969133 18.555356161 3.45146744202
8120 1 84.8484638387 18.5124457303 2.77639720404
3349 2 88.1806909745 19.682748735 0.245579768292
8125 1 87.3313774971 18.3736775505 1.8543021604
8126 1 85.5693602594 16.9922869026 1.01106450924
8604 1 85.650687125 19.8924245592 0.978530229007
8124 1 86.6526810948 16.9902919961 3.67620162057
3837 1 1.2452619206 21.3650997031 1.16690026938
3835 2 2.22345495531 22.2963421475 3.19606930735
3882 2 2.19795429968 23.7991138664 0.389259110125
3836 1 3.75073501609 24.2321122336 2.38988640271
3358 1 4.05131749712 21.3649717881 2.35514986064
3375 1 6.63669208664 21.4269159726 3.15359882405
3853 1 6.55995438223 24.2519595538 3.17430512871
3854 1 5.67803879211 22.8810300563 1.41985591493
3855 1 7.39215563224 24.2805762866 0.369293928908
3377 1 7.4095062596 21.4158173116 0.376206023724
3403 1 10.1148981601 21.4100374529 1.11259998712
3880 1 8.36228295434 22.8507483982 2.13184626585
3881 1 10.1036420775 24.2686466533 1.11892844033
3911 1 11.0964166112 22.8384547815 2.86087157365
3434 1 12.839510987 21.4006491 1.84062114119
3912 1 12.8264889933 24.2615713338 1.84206631626
3943 1 13.8322717314 22.827046638 3.58357101537
3945 1 14.5659512547 22.8241166992 0.818923020507
3913 1 11.8436144464 22.8330779615 0.0956250484174
3466 1 15.5696832122 21.3916100504 2.56255522841
3497 1 18.3046119085 21.3796672744 3.28437914058
3944 1 15.5631239456 24.2483273772 2.56299319949
3975 1 18.3024657257 24.2368949221 3.28311364068
3976 1 17.2985176751 22.812959483 1.54068579092
3499 1 19.0302664203 21.375224088 0.52159510126
3531 1 21.7668009792 21.362756508 1.24965420995
3977 1 19.0279804243 24.2344205032 0.518732803494
4008 1 20.0354309709 22.8010866153 2.26406659181
4009 1 21.7683014955 24.2212491015 1.24602476378
3562 1 24.5099079109 21.3482050924 1.98079377381
4039 1 22.7784772069 22.7877853141 2.99019563132
4040 1 24.5142649361 24.2084337076 1.97234889369
4041 1 23.5014052508 22.7832365209 0.233888623645
3594 1 27.2524224991 21.3241600697 2.71510370851
4072 1 27.2615140646 24.2039560164 2.68997334924
4073 1 26.2460304061 22.7688124831 0.963627609421
4105 1 28.950927758 22.7328635321 1.6947215228
3626 1 30.0073984494 21.3316610168 3.41637574862
3628 1 30.709053882 21.3321288917 0.663936315675
4104 1 30.0057576789 24.1862411934 3.37559068183