ITEM: TIMESTEP
24000
ITEM: NUMBER OF ATOMS
9560
ITEM: BOX BOUNDS pp pp pp
0.0 88.6430375159
0.0 28.55
0.0 44.3215187579
ITEM: ATOMS id type x y z
2 1 1.38078765903 1.408418688 1.67188345404
491 1 3.13939062525 2.78892063884 0.743181099236
1 1 0.056240053675 2.72389592386 3.04307942639
11 1 2.46155047899 0.136729340298 3.49522526375
489 1 2.39325597993 2.98546133172 3.48676743432
13 1 3.15530886703 0.085636672004 0.791979433754
5257 1 0.162736082475 0.0370714882846 3.424227925
481 1 0.100221331554 2.86221011908 0.0720551920627
12 1 4.14221697793 1.5016949005 2.50741968985
29 1 6.68946067211 1.42557557071 3.20158540713
508 2 5.81908068026 2.97894085479 1.42059131586
31 1 7.47305095535 1.40954666049 0.48373459251
57 1 10.1647329636 1.39661545769 1.17608643241
534 1 8.46495145025 2.82617638783 2.18557956663
565 1 11.1979186169 2.8296022167 2.89787038673
88 1 12.9046986941 1.39807192883 1.88211138349
597 1 13.8997890427 2.82107978078 3.62608977261
599 1 14.6272470692 2.82679878546 0.848811202722
567 1 11.8973406865 2.82709402295 0.153566094657
120 1 15.622919415 1.40171050285 2.59840687853
151 1 18.3403555144 1.39166086278 3.33329606615
630 1 17.3528624875 2.81835596122 1.57325352167
153 1 19.0881255048 1.37894202907 0.59129167621
185 1 21.7996246004 1.38731496838 1.29734086611
662 1 20.0761252962 2.81597071583 2.32215441152
216 1 24.5301929861 1.37930739134 2.02214979904
693 1 22.8007513273 2.81166666871 3.04428918679
695 1 23.5307752867 2.81331610714 0.277530284287
248 1 27.2626927556 1.36923970511 2.74191228484
727 1 26.259602946 2.80635958305 1.0011768409
759 1 28.9926922872 2.79168839862 1.71926842283
280 1 30.009349132 1.34457344025 3.44408839184
282 1 30.7147078831 1.34588745103 0.700940400317
791 1 31.7169634109 2.77884975825 2.42396108238
314 1 33.4422625158 1.34333660116 1.41162564355
345 1 36.1778475391 1.38808238959 2.12838039981
822 1 34.4408991913 2.78371992194 3.12908464511
824 1 35.1565332465 2.77742988645 0.393254200664
376 1 38.9404404776 1.37214853161 2.8291013472
855 1 37.94741074 2.76228651758 1.08247254708
378 1 39.7038528429 1.32203485703 0.166974842051
887 1 40.680876264 2.79687792215 1.79204516246
410 1 42.3687470478 1.29673649711 0.930834034053
918 1 43.5226590826 2.77974120767 2.52299262939
408 1 41.6831257166 1.46023949059 3.55281273428
4866 1 45.305227748 0.981622181662 1.68397971761
5824 2 45.9191245941 2.84769106579 3.11539272557
5344 2 48.6832622464 1.71954625092 1.94950325353
4899 1 49.8150331575 0.80159717137 3.59552491161
5411 1 50.6424943073 2.79418059939 1.36787714091
4933 1 50.5796555765 0.131037031045 1.09174185837
4932 1 52.3706931788 1.42701785138 2.39099208898
4964 1 55.1423384283 1.4336800402 1.63493142205
5443 1 53.4029619487 2.83947309768 0.607207065022
5441 1 54.1579776647 2.8728362307 3.38747158317
4965 1 53.4250851966 0.107826161148 0.480768585099
4997 1 57.9150415198 1.43338141831 0.903399857709
5474 1 56.9032965148 2.84882570574 2.65649816621
4995 1 58.6242536099 1.4273272718 3.62538078248
4996 1 56.8770457545 0.00911342189346 2.6285694294
5028 1 61.3868577663 1.41598709605 2.96235999706
5030 1 60.6692447244 1.43313088781 0.188024882594
5507 1 59.6582800415 2.84467576754 1.94351533254
5540 1 62.3941846501 2.84232387611 1.21541446173
5062 1 62.406447131 0.0228224097641 1.20779256145
5029 1 59.6587201186 0.0167563873169 1.92400565528
5061 1 64.1496497327 1.44765398517 2.19030817335
5572 1 65.1473318289 2.85993136967 0.461861208859
5570 1 65.8755327778 2.8572004906 3.21658025611
5094 1 65.1512337039 0.016334995332 0.457887463576
5092 1 65.880888814 0.0103376999284 3.21238508331
5093 1 66.8847207485 1.43544701027 1.47509130671
5126 1 69.624743679 1.43866312181 0.749383317278
5603 1 68.6178881048 2.86338756166 2.49192240287
5125 1 68.619832824 0.00792164444657 2.48782664051
5157 1 73.0955132405 1.45841403357 2.77741908054
5636 1 71.3603916996 2.87560960837 1.77144842705
5124 1 70.3530692357 1.43761884781 3.50719555121
4998 1 72.3611034326 1.45051134913 0.0244431984123
5158 1 71.3576926241 0.0124393022136 1.76353642585
5189 1 75.8010828941 1.47356624694 2.05751886629
5668 1 74.0873184059 2.91306981626 1.03906531001
5698 1 76.7991355543 2.91782456049 0.332794629309
5696 1 77.51092241 2.90886729481 3.07009158355
5190 1 74.0851594688 0.015931664557 1.04134981509
5220 1 76.8012000239 0.0161285866441 0.326478450925
5218 1 77.5268912494 0.01673558244 3.08668618849
5219 1 78.5209515273 1.45898950083 1.34407957992
5718 1 80.2625561533 2.8856569398 2.35941557287
5240 1 80.2489922337 0.017815562596 2.36012793109
5241 1 81.2480033401 1.44233888634 0.607351633309
5731 1 82.9769090898 2.87778472283 1.59708160284
5239 1 81.9838294255 1.45584907176 3.37737624156
5252 1 84.6500522448 1.43199451542 2.62347575977
5736 1 85.6759697542 2.76631103314 0.816932300153
5258 1 87.3632743933 1.18254474189 1.45450467428
5734 1 86.3077992853 2.84382514211 3.60349711928
9559 1 86.3709090496 0.13751026805 3.67954027402
480 1 1.41694680931 4.20238552328 1.5429077724
958 1 1.24171659476 7.138734139 1.90089902467
969 1 3.06039730202 5.73546720497 0.819905011913
967 1 2.45103095837 5.59070212826 3.4282346073
479 1 0.201086765858 5.27406083824 3.12388375889
959 1 0.0717456133991 5.7634046335 0.113585723561
490 1 4.12970565677 4.22266515783 2.46223366656
968 1 4.04085329172 7.12683664359 2.54461891577
507 1 6.80042080604 4.24246541475 3.21938878217
985 1 6.79135921232 7.0904565781 3.21003391983
986 1 5.7723674875 5.70257450981 1.48050092795
987 1 7.47336811998 7.10910605184 0.446208606885
509 1 7.51618608682 4.30097714057 0.443859214126
535 1 10.1877436804 4.25132571127 1.17243538446
1012 1 8.50510650893 5.68962049167 2.18931169626
1013 1 10.2014550241 7.1163972136 1.16986551891
1043 1 11.2111686103 5.68363532698 2.90352288803
566 1 12.9196369665 4.24488694161 1.88313568034
1044 1 12.9304668972 7.10559488003 1.88734732284
1075 1 13.9088328048 5.6729496137 3.61901943915
1077 1 14.6416179234 5.65503669535 0.851905021637
1045 2 11.9037672147 5.68798283596 0.15296867672
598 1 15.6276177714 4.2364435364 2.5940326962
629 1 18.3416877496 4.24196940428 3.33220633635
1076 1 15.6271165474 7.09646243036 2.60041395531
1107 1 18.3375341317 7.09912797133 3.33030839262
1108 1 17.3449086527 5.65306135501 1.57145194774
631 1 19.0893341085 4.25499357235 0.589276857668
663 1 21.8013397225 4.24309536922 1.29776566478
1109 1 19.0707496637 7.09239671653 0.566843193818
1140 1 20.0730667952 5.67287583422 2.31893250544
1141 1 21.8002814192 7.10203872438 1.29687420909
694 1 24.5310024453 4.2396080772 2.02291813946
1171 1 22.7999767325 5.671915979 3.04376138199
1172 1 24.5310581873 7.10058152935 2.02316173068
1173 1 23.5303535393 5.67156688311 0.277727461521
726 1 27.264761816 4.23136903197 2.74275529013
1204 1 27.2644295626 7.09831327772 2.74504239004
1205 1 26.2612396404 5.66817658519 1.00266199337
1237 1 28.9912240551 5.6657265703 1.72400521571
758 1 29.9958075441 4.22343910098 3.45520480033
760 1 30.7132194636 4.22847365722 0.70113180461
1236 1 30.0014651854 7.09989018043 3.46241819437
1238 1 30.7188610114 7.10276805749 0.708017508049
1269 1 31.7178714271 5.66344871391 2.43599168671
792 1 33.4360271393 4.22231783138 1.40879037614
823 1 36.1849834745 4.2083469685 2.0991876448
1270 1 33.4421258151 7.10160408369 1.42119406865
1300 1 34.4423100971 5.65440871424 3.13280321696
1301 1 36.1724011006 7.0865191956 2.11855617598
1302 1 35.1643238602 5.65215688805 0.393956646078
854 1 38.9248526519 4.19456223189 2.80452615206
1332 1 38.9030380968 7.06621252588 2.83242137482
1333 1 37.9250936247 5.64324041977 1.08176079954
1334 1 39.6527338885 7.10795261839 0.0947487451378
856 1 39.6709627375 4.19475420879 0.0682113648103
1365 1 40.6650678108 5.63897235265 1.81944399153
886 1 41.73259785 4.16753219531 3.48747644883
1396 1 42.355814265 4.23202694092 0.739641417321
1364 1 41.6155683245 7.09785271845 3.56097224102
1366 1 42.2659572895 7.14428672401 0.825060268757
6217 1 43.4614506011 5.67504583482 2.47851861929
5346 2 44.6171506724 4.30556663271 0.730015782624
6302 2 44.7464597439 7.5899752835 1.45228577284
5822 2 47.3726069022 5.95892141703 1.30926289345
6334 1 48.1761560718 8.09218332367 2.34183730989
5377 2 49.9079699167 4.59056493686 2.851541851
5739 1 49.0313709607 4.67708430564 0.238108697183
5855 1 50.1475779575 7.19992487692 3.01304152748
5889 1 50.9767096002 5.78037822178 1.21514118561
5857 1 49.0925348231 7.26330381157 0.215394481507
5410 1 52.4295116749 4.22742186488 2.3831850665
5442 1 55.1843296814 4.26605283333 1.62727015124
5888 1 52.597339731 7.21058279118 2.32565996052
5920 1 55.2220566204 7.13237538807 1.61141341482
5921 1 53.4664331732 5.68047040637 0.59805509805
5919 1 54.2072046277 5.68834431814 3.37668911017
5475 1 57.9281497177 4.26522916049 0.911461536584
5952 1 56.9320133272 5.70038754867 2.64096035764
5953 1 57.950855953 7.12853096822 0.894660022163
5951 1 58.6842415126 7.16165620809 3.61600408804
5473 1 58.6381751325 4.26733799035 3.66895064027
5506 1 61.380477698 4.26539324748 2.95458848759
5508 1 60.6721218 4.27095685202 0.181657585587
5984 1 61.3922250964 7.1299381874 2.93378048139
5985 1 59.6623718218 5.68885249712 1.92309857655
5986 1 60.6816233702 7.12742741097 0.173221300766
6018 1 62.4014007037 5.69943141197 1.19809973914
5539 1 64.1332698387 4.27505576243 2.20918541451
6017 1 64.1366233375 7.13519142393 2.20215654472
6050 1 65.143001904 5.70831476549 0.461450030238
6048 1 65.8678826629 5.70874894608 3.21670849682
5571 1 66.8797837399 4.28611505526 1.47456501539
5604 1 69.6196319392 4.29057195665 0.746574176808
6049 1 66.8747715597 7.13992875205 1.47248483789
6081 1 68.608979903 5.71370875533 2.48939287017
6082 1 69.6139251636 7.1407776328 0.743128974462
5635 1 73.0917271478 4.31180705581 2.78395948018
6113 1 73.0832197792 7.11776264916 2.78170933754
6114 1 71.3500894498 5.71519936783 1.76179641985
5602 1 70.3520661463 4.29558873 3.50696295592
6080 1 70.3454359239 7.13139957839 3.50399109446
5476 1 72.3207315213 4.27677369568 44.3232182949
5667 1 75.7737538425 4.36347037321 2.04324861286
6145 1 75.7689847496 7.07239565824 2.03821860489
6146 2 73.8986295057 5.72069705351 0.93402062719
6176 2 76.9441948904 5.72484833799 0.277908541982
6174 1 77.5218290861 5.72038329807 3.08887621253
5697 1 78.548523775 4.30859843899 1.35442444465
6175 1 78.5306363604 7.13136013515 1.37796552702
6196 1 80.2761950912 5.7357478602 2.36980891826
6197 1 81.2887581155 7.15308168573 0.639244160049
5719 1 81.260175752 4.31512739825 0.607916028511
5730 1 84.6970029253 4.30421364527 2.60321439892
6208 1 84.7323072638 7.22736174927 2.6171015111
6209 1 83.0015572529 5.74192640509 1.62101376972
6195 1 82.0136085669 7.18178964949 3.38755814753
5717 1 82.0051576689 4.31961825941 3.37994532631
5735 1 87.3414684822 4.18773813432 1.71781080147
6213 1 87.4122993047 7.17264231107 1.85660029482
6214 1 85.7087796015 5.76478577685 0.89760073026
6212 1 86.3719440747 5.74330276128 3.65401707771
1436 1 2.9440103022 8.57548463471 0.907327302821
1925 1 3.05934436798 11.2385975225 0.856229392538
1915 1 1.22774100613 9.87327992551 2.12340626932
1437 1 0.0176604730381 8.65199871419 0.301536845304
1446 1 3.96426473332 9.87183516556 2.65698522776
1463 1 6.76528740966 9.93546378409 3.22604034968
1464 1 5.74130243442 8.53407958445 1.51104107472
1942 1 5.68583694102 11.3229149545 1.51588183942
1465 1 7.45235486406 9.94545724683 0.454418236159
1490 1 8.49052605914 8.52774401187 2.18644014175
1491 1 10.2003634432 9.95022586403 1.16196568937
1968 1 8.4696253933 11.3659106723 2.18314269037
1999 1 11.1966697822 11.3912035335 2.90421868532
1521 1 11.2153963391 8.53420046103 2.90667275925
1522 1 12.9165317506 9.96033466543 1.87758578378
1553 1 13.9122436867 8.54112249005 3.62506278167
1555 1 14.6328213028 8.52194634996 0.858473901005
2031 1 13.8975440847 11.388971022 3.60437535541
2033 1 14.6282895619 11.3943132045 0.859646506627
1523 1 11.9205898567 8.52414107981 0.142489419628
2001 1 11.9054428716 11.386060662 0.138277768494
1554 1 15.6270281053 9.96663500805 2.60224149425
1585 1 18.3406207151 9.96277718232 3.33095104813
1586 1 17.3467205721 8.52629498388 1.58264129248
2064 1 17.3456266198 11.39455127 1.58441160269
1587 1 19.0700391354 9.95880432428 0.566347116264
1618 1 20.0688037408 8.52987870064 2.31434889354
1619 1 21.7982453117 9.95945077843 1.29512338567
2096 1 20.0708586346 11.3904096244 2.31358377904
1649 1 22.799665962 8.53199115318 3.04331928261
1650 1 24.5318276361 9.96182590352 2.02476740321
2127 1 22.8015252812 11.3911443848 3.04402845446
2129 1 23.5282366987 11.3895004887 0.278963286886
1651 1 23.5287598857 8.53092564226 0.277631772553
1682 1 27.2667832597 9.96162999049 2.74920538751
1683 1 26.26120973 8.53153609247 1.00467306814
1715 1 28.9960098711 8.53334734057 1.7296161822
2161 1 26.2640638013 11.3930057182 1.00918327093
2193 1 29.0019326335 11.3910340268 1.73529632877
1714 1 30.009045159 9.95760525431 3.46901796223
1716 1 30.728026579 9.96436299933 0.716271088318
1747 1 31.7220150461 8.52557184768 2.43824766129
2225 1 31.7290531203 11.3969053822 2.44662100082
1748 1 33.4501636069 9.96805528022 1.42983379842
1778 1 34.4526288035 8.52048816009 3.14685949052
1779 1 36.1727203302 9.9697822251 2.14092241155
2256 1 34.4569690633 11.3985184309 3.16322165319
2258 1 35.1886394843 11.4014622037 0.408659876625
1780 1 35.164544339 8.54038941798 0.408202910521
1810 1 38.8845547258 9.97048601321 2.87020744701
1811 1 37.9050492021 8.52784715944 1.12153092029
2289 1 37.9273312268 11.4089895287 1.12813806866
1843 1 40.6180120871 8.55338074344 1.85587237295
1812 1 39.6332727341 9.95365884051 0.102551065853
2321 1 40.6189876326 11.4263085199 1.89119162986
1874 1 43.2539117964 8.66676256517 2.65438790338
1844 1 42.2519664701 10.0497948274 0.799152835693
2352 1 43.1841996647 11.2608784083 2.58295441561
5856 1 46.7387575967 8.34879913572 0.337837071713
6695 1 45.1043518469 10.0157994985 1.1746437139
6812 2 48.5639452612 11.5805439149 1.98163607488
6333 1 49.920979877 10.0766736537 2.9875295149
6335 1 48.9268874338 9.89507229126 0.291831466718
6367 1 50.8359358181 8.63126483118 1.24855897439
6845 1 50.8794540664 11.4934993629 1.21002815956
6366 1 52.5569311043 10.0659268041 2.28859235426
6398 1 55.2615554603 10.0409941831 1.58363487786
6399 1 53.5513418828 8.61316519654 0.563665685374
6877 1 53.5498551753 11.4922167574 0.54201654547
6875 1 54.279426984 11.4791087743 3.32441030754
6397 1 54.2783220462 8.62783394417 3.33720509244
6430 1 56.9560531114 8.58642288434 2.61242234241
6431 1 57.9765924805 10.0141478086 0.877937610005
6908 1 56.9799256865 11.4638209015 2.60803509395
6429 1 58.6903259311 10.0102958934 3.63813437953
6462 1 61.4166166598 10.0028801211 2.92032406585
6463 1 59.6874370347 8.57368424256 1.89875209113
6464 1 60.7033013426 10.0044773729 0.161513181935
6496 1 62.4125337543 8.56408592085 1.18575839011
6941 1 59.706283153 11.4458330449 1.89548898852
6974 1 62.4353318829 11.4451377068 1.17502191488
6495 1 64.1431398063 9.9988289142 2.19689820426
6528 1 65.1450197796 8.56848321833 0.456108788621
7006 1 65.1402028842 11.443592359 0.453571975045
6526 1 65.8687325178 8.56776346011 3.21405505555
7004 1 65.869123597 11.434121756 3.2088983679
6527 1 66.8719847077 10.0022165732 1.46738158497
6559 1 68.6061309362 8.56691092977 2.48574167257
6560 1 69.6114505642 9.99722663862 0.739062444376
7037 1 68.5995530183 11.4303712132 2.47778491806
6591 1 73.0773200334 9.9663957207 2.76866240376
6592 1 71.3471131584 8.55525253424 1.7647850711
7070 1 71.3409932118 11.4160005863 1.75207032136
6558 1 70.3353696455 9.99093278696 3.49828811427
6432 1 72.3481101625 9.97850670781 0.0109431619983
6623 1 75.7842346213 9.94684456612 2.04540574147
6624 1 74.0748844398 8.51714002679 1.03206630665
6654 1 76.8040526797 8.51669124079 0.326992640683
7102 1 74.0699985055 11.4003892249 1.02352259029
7132 1 76.7953629214 11.3823041844 0.302187742844
7130 1 77.4984045078 11.3912554662 3.0788971265
6652 1 77.4900345458 8.52270790249 3.07365218429
6653 1 78.4950550242 9.97600754191 1.3621666081
6674 1 80.2594458922 8.57027369471 2.3737657543
7152 1 80.2288701982 11.3904831498 2.37011400053
6675 1 81.267714914 10.0103066111 0.632927644532
6686 1 84.7523743542 10.0760015291 2.69605105134
6687 1 83.0133275565 8.61902119556 1.64338183903
7165 1 82.9791570108 11.4134526207 1.64095661183
6673 1 81.9954357072 10.0004367514 3.39974293639
6691 1 87.3961955403 10.0530661338 2.13270909843
6692 1 85.7836802566 8.74949391603 0.835199145495
7170 2 85.6481984015 11.4116742648 0.847708777228
1914 2 1.35183996312 12.4428238657 1.6889066894
2392 2 1.38589733248 15.6970977427 1.59729325676
2401 1 2.14572462703 14.104182557 3.46090116259
2403 1 2.94892853198 14.0617251743 0.788767282774
2402 1 3.89952094803 15.6081390803 2.41329365195
1924 1 3.9209045937 12.7134122477 2.56204960348
1941 1 6.7422562124 12.7809740318 3.18587776641
2419 1 6.71824661215 15.6536140125 3.14744945277
2420 1 5.66181942747 14.1700576112 1.48075634931
2421 1 7.38402234982 15.6208690175 0.454734416947
1943 1 7.41783119975 12.7675163301 0.45331663137
1969 1 10.1749904927 12.8060018373 1.15738801401
2446 1 8.44223620164 14.2216144029 2.16198485454
2447 1 10.1570311343 15.6561263234 1.16842680043
2477 1 11.1771598801 14.245312931 2.89313852035
2000 1 12.9022265085 12.8224892629 1.87475751665
2478 1 12.87632251 15.6873026756 1.8716980308
2509 1 13.8835272734 14.2708097822 3.60014517398
2511 1 14.613455797 14.2559266233 0.8600408664
2479 1 11.8821721786 14.2460651913 0.138667032583
2032 1 15.6213518029 12.8276211976 2.59977390485
2063 1 18.3437958597 12.8233580824 3.32916134427
2510 1 15.6113537476 15.682714291 2.60371021319
2541 1 18.3393890369 15.6778133439 3.33446561073
2542 1 17.3408917522 14.2524447622 1.58580019628
2065 1 19.0693762991 12.8204583742 0.565670788759
2097 1 21.7993096692 12.8183642511 1.29636633955
2543 1 19.0662276168 15.6777716296 0.568910220072
2574 1 20.071027334 14.2489742623 2.3148401206
2575 1 21.7995359408 15.6742842509 1.29835612707
2128 1 24.5355077447 12.8218738493 2.02923247112
2605 1 22.8038379813 14.2485571845 3.04672276706
2606 1 24.537935353 15.6750195845 2.03130509436
2607 1 23.5294131379 14.2459288518 0.280963702685
2160 1 27.2756535141 12.8243088429 2.7583628201
2638 1 27.2858995079 15.682345971 2.76477516193
2639 1 26.268888078 14.2495084293 1.01345148051
2671 1 29.0061947567 14.2489045504 1.73443243645
2192 1 30.0147554626 12.818072874 3.47673679372
2194 1 30.7339699257 12.8208745407 0.715740799037
2670 1 30.0074514451 15.6644027899 3.45889778596
2672 1 30.7408946444 15.6784701989 0.713520146094
2703 1 31.7425888925 14.2509050198 2.45379085775
2226 1 33.4649317369 12.8220308952 1.43499542518
2257 1 36.1915267029 12.8305206723 2.15091232018
2704 1 33.4820883451 15.6833033272 1.43221431296
2734 1 34.4638020917 14.2520445301 3.17502303667
2735 1 36.2162512927 15.6815908846 2.1543455425
2736 1 35.2136075653 14.2598058706 0.407336782763
2288 1 38.9093653689 12.8552755701 2.89096293112
2766 1 38.9308509468 15.6792390009 2.90195123092
2767 1 37.953383114 14.2575772437 1.12971036903
2768 1 39.7403787522 15.64105485 0.0973296512459
2290 1 39.7042236377 12.8322875672 0.112442861844
2799 1 40.679914224 14.2898235303 1.89813219836
2322 1 42.4317676179 12.8933156864 0.993456937449
2800 1 42.4170106561 15.7002164876 0.923765691626
2830 1 43.5557577627 14.3325979893 2.61489460688
2320 1 41.6570145982 12.8988747188 3.63507882183
7259 1 45.0313011801 12.3981263418 1.8105273756
6780 1 46.1053217284 14.292156958 1.26284936556
7737 1 45.0812696701 16.2407078597 2.1746435686
6778 1 46.2162323368 14.2436116882 3.67934176129
7290 1 48.3013514513 14.3562127877 1.8269429742
6811 1 49.9817669042 12.9981327059 2.98479566479
6813 1 49.2112351265 12.9618510592 0.137779796662
7289 1 50.0621760798 15.7213718764 2.88592528862
7323 1 50.9565184382 14.349900338 1.13905111593
6844 1 52.5605655368 12.9038393061 2.27440882581
6876 1 55.2511170531 12.9136711284 1.5706341542
7322 2 52.6163549039 15.7796235736 2.37591625355
7355 1 53.5174675177 14.3442583885 0.528650189019
7353 1 54.2855447205 14.3134869429 3.32236080246
7354 1 55.2348337879 15.7526339811 1.56732462401
6909 1 57.9921896197 12.8905119397 0.871115996497
7386 1 56.9776216912 14.3227357274 2.60031267214
7387 1 57.9913677022 15.7433932238 0.866445079263
6907 1 58.7077016695 12.8849888033 3.62740172491
7385 1 58.7067363065 15.7378067579 3.62159617698
6940 1 61.4416702932 12.8821726222 2.90053167446
6942 1 60.7295404497 12.8830415615 0.160598856217
7418 1 61.4569175195 15.727815873 2.89900548523
7419 1 59.7261367514 14.3166410225 1.88706875277
7420 1 60.7434511107 15.7275361231 0.150036940049
7452 1 62.4586474366 14.3165901474 1.16679780005
6973 1 64.1519033767 12.8795988488 2.19156247851
7451 2 64.1868771918 15.7100365913 2.31959059819
7484 1 65.1298121825 14.3134325544 0.456570651287
7482 1 65.8922646071 14.2843182777 3.21633285843
7005 1 66.8573079543 12.8731234849 1.46142019532
7038 1 69.6064997586 12.8576708971 0.732038604859
7483 1 66.8488606982 15.7209279489 1.46860206214
7515 1 68.5920606094 14.2929416524 2.47622599549
7516 1 69.5973761407 15.7145616146 0.734387873726
7069 1 73.0642502211 12.8404239365 2.76897307153
7547 1 73.0603417164 15.7037432037 2.77246370143
7548 1 71.3331209749 14.2783625055 1.74994970723
7514 1 70.3239880407 15.7155436232 3.49315263488
7036 1 70.3300272894 12.8522760151 3.49365164879
7388 1 72.3355752684 15.7006109832 0.00506679550528
6910 1 72.3418704352 12.8432787925 0.00272699132572
7101 1 75.7880082222 12.8278185282 2.0460456915
7579 1 75.7902549017 15.693009002 2.05399517234
7580 1 74.0647517815 14.2659869162 1.02505600006
7610 1 76.7911906174 14.2547240642 0.306135266984
7608 1 77.5075874426 14.2573034379 3.07782651436
7131 1 78.5081127237 12.8180385659 1.33548043525
7609 1 78.5198587421 15.6812221783 1.34011904669
7630 1 80.2387820649 14.236426643 2.36511996008
7153 1 81.2317069419 12.8093877867 0.619187869426
7631 1 81.2724928974 15.654520298 0.627131734238
7643 1 82.9809369891 14.1728520293 1.663587253
7164 1 84.7413651627 12.7246314098 2.72208188625
7629 1 81.9699968284 15.6477845699 3.38321371881
7151 1 81.9594165201 12.7783701183 3.40287021323
7642 1 84.6753742774 15.5495025105 2.69825015527
2393 1 88.6278153014 14.1541872926 0.301291330127
7169 1 87.5258155115 12.7190077733 2.00012508625
7647 1 87.5345378785 15.5154656744 2.13286332619
7648 1 85.8018117904 14.0997612725 1.00727605555
2870 1 1.19494209442 18.4189272338 1.93858771595
3359 1 3.25399501898 19.9774381 0.861292599943
3348 1 2.22820583796 19.9326623888 3.43334215085
2881 1 2.86210399075 17.1015069713 0.582466004302
2879 1 2.18825232346 16.9207405479 3.5275653324
2880 1 3.9270221927 18.4204157584 2.49995856375
2897 1 6.67370279395 18.5048092034 3.17321471461
2898 1 5.67243983104 17.067407203 1.43109373853
3376 1 5.71964120265 19.9300955628 1.45068164321
2899 1 7.42866016096 18.5178195543 0.41563575906
2924 1 8.4192794221 17.0988433236 2.13900283038
2925 1 10.1034436988 18.54191926 1.12912589317
3402 1 8.37515752263 19.9720124926 2.15850226975
3433 1 11.1142699713 19.955964218 2.87749154069
2955 1 11.1369119083 17.1156403196 2.87424388953
2956 1 12.8530552906 18.5383474624 1.86987761409
2987 1 13.8763339415 17.1080454224 3.62207582855
2989 1 14.5986099307 17.1131426019 0.863950997654
3465 1 13.8631569675 19.9589405526 3.62455095105
3467 1 14.5922286421 19.9612566894 0.869036465543
2957 1 11.8374268429 17.1137469248 0.137321798643
3435 1 11.8267942904 19.9668139262 0.142504941997
2988 1 15.6020763349 18.5345668946 2.61073024275
3019 1 18.3350873331 18.5284285694 3.33946738463
3020 1 17.3359651232 17.1074965899 1.58984560973
3498 1 17.332424986 19.9576785513 1.59357482584
3021 1 19.0634746026 18.5304028427 0.571609075337
3052 1 20.0681058491 17.1020845976 2.31786941134
3053 1 21.7982042084 18.5256425982 1.29937543031
3530 1 20.0660692454 19.9524431033 2.31921898805
3083 1 22.8038482403 17.0997346063 3.04786098727
3084 1 24.5380992573 18.5228272757 2.03049764337
3561 1 22.8030605015 19.9476383016 3.04744318867
3085 1 23.5298341747 17.0985897445 0.28128181397
3563 1 23.5287155705 19.9487806721 0.280908835854
3116 1 27.2864526292 18.5187900316 2.76091433879
3117 1 26.2696422905 17.0979855107 1.01168259208
3149 1 29.0131561425 17.1022203379 1.73320346576
3595 1 26.2702013533 19.9449199417 1.01046671424
3627 1 29.0126487967 19.9438152372 1.73006304668
3148 1 30.0192936456 18.5404480303 3.46384599675
3150 1 30.7468044761 18.5236070261 0.710758702636
3181 1 31.7521510857 17.1053328672 2.45245683206
3659 1 31.760347762 19.9493153131 2.44801164109
3182 1 33.4949100958 18.5240967263 1.43161795309
3212 1 34.4807425009 17.1082801273 3.18087538338
3213 1 36.2413647861 18.5195739551 2.16244145042
3690 1 34.4987434496 19.9482572431 3.17611809207
3214 1 35.2388343524 17.1048085818 0.408963225569
3692 1 35.2488866542 19.9416966563 0.412754901074
3244 1 38.961559039 18.50951617 2.91304099542
3245 1 37.9938734394 17.0917067945 1.13228951385
3723 1 38.006407861 19.919590215 1.15014980476
3246 1 39.7642248492 18.49000486 0.111460055678
3277 1 40.6727016373 17.0942631836 1.92678673332
3755 1 40.7708469261 19.8828596746 1.93475909771
3278 2 42.273877513 18.3363317694 0.699218471394
3786 2 43.3612795074 19.8409798824 2.97178335702
3308 1 43.1531839584 17.2950703405 2.67332479259
7735 1 44.8395357801 18.6019052631 1.18334955721
7734 1 46.9625875836 18.3581866451 2.53511909859
7736 2 46.8786715155 19.8978371782 0.503265245382
7651 1 46.544039676 16.4482895705 0.313934022335
7768 2 48.5288426795 16.9613181642 1.79192473519
7767 1 49.8086892402 18.6214402472 2.87134410728
7801 1 50.8527928867 17.1541252461 1.11652422368
8279 1 50.7849572499 19.9880221004 1.15694461568
7769 1 48.9535197683 18.6473680419 0.343057365964
7800 1 52.5027829978 18.5616755877 2.24048801954
7832 1 55.224107174 18.5976771869 1.55657383527
7833 1 53.5058683105 17.1590773778 0.515430069904
8311 1 53.4641374184 20.0195799066 0.522433382619
7831 1 54.2764863511 17.191319077 3.31200744211
8309 1 54.2167313191 20.0087626611 3.30312986201
7864 1 56.9759745523 17.1751557627 2.59403053947
7865 1 58.0056037939 18.6023761981 0.875670697956
8342 1 56.9713049154 20.0234464791 2.59510038257
7863 1 58.723204619 18.5960616122 3.60583069684
7896 2 61.4309084511 18.4499512985 2.90431861165
7897 1 59.7147963956 17.1413774955 1.87646773622
7898 1 60.7427778547 18.568882471 0.180413246887
7930 1 62.4779827758 17.1117739674 1.15155347699
8375 1 59.7388325068 20.0230907136 1.89260124502
8408 1 62.4213317186 19.9955528146 1.19766706624
7929 1 64.1318664296 18.5670488051 2.19115010069
7962 1 65.1123202642 17.1194486674 0.464466784758
8440 1 65.1227455883 19.9895377124 0.462658565335
7960 1 65.8768513978 17.1634085986 3.20928302384
8438 1 65.8489114111 20.0021720812 3.20130520522
7961 2 66.8747419083 18.5760603268 1.46440921396
7993 1 68.5956578822 17.1356969066 2.47918368373
7994 1 69.5892620057 18.5611645658 0.735617532067
8471 1 68.6005075222 20.0002090911 2.48069685926
8025 1 73.0621807216 18.5593003828 2.7753318571
8026 1 71.3269977993 17.1363286023 1.75071670756
8504 1 71.3285866969 19.9826169705 1.75143565421
7992 1 70.3188743956 18.5667994613 3.4916685532
7866 1 72.3390165248 18.5503911623 0.00748660442128
8057 1 75.7967908352 18.5527631965 2.05942765781
8058 1 74.0660669792 17.1233318564 1.03099630709
8088 1 76.7965524022 17.1141532468 0.314880811691
8536 1 74.0696955451 19.978222114 1.03497204709
8566 1 76.8056568247 19.9686237325 0.319104977705
8086 1 77.5167256169 17.1243078759 3.08281831797
8564 1 77.5295382506 19.9850557897 3.088278582
8087 1 78.5332202798 18.5393601639 1.3434179475
8108 1 80.256093902 17.0989883088 2.36084129294
8586 1 80.273096997 19.9635114374 2.36159802097
8109 1 81.2900772751 18.5087964615 0.627747061815
8121 1 83.0204129735 17.0650490411 1.64852041815
8599 1 83.0192047253 19.9385677168 1.64717322263
8107 1 81.990997755 18.5130766919 3.37744407
8120 1 84.7521435487 18.4974727532 2.69982950626
2871 1 88.5975062506 16.975602162 0.169106523035
3349 2 88.2781871468 19.4933383201 0.652001545967
8125 1 87.3128516328 18.3137453938 2.23887807033
8126 1 85.7424194867 16.9199660661 1.06162865171
8604 1 85.7426968948 19.9435722604 1.02439430329
3837 1 1.22515401945 21.3573918328 1.37438886955
3835 2 2.24497669854 22.450806834 3.18902029155
3882 1 3.20423675449 22.8102296093 0.858875899554
3836 1 3.91945095541 24.3455581939 2.58409160674
3358 1 4.08658256598 21.3649475107 2.56130574206
3375 1 6.60809585388 21.409700807 3.2200210692
3853 1 6.58814111043 24.2676780552 3.263985955
3854 1 5.66765128562 22.8752556677 1.48626835342
3377 1 7.36483705529 21.4316167654 0.444554268119
3855 1 7.38999005236 24.2840518664 0.443721560903
3403 1 10.1153818106 21.4153122507 1.17974113558
3880 1 8.35915073931 22.8358397766 2.19256689632
3881 1 10.1240456486 24.2474490984 1.17543453629
3911 1 11.1275078263 22.8142039137 2.90537877345
3434 1 12.8549431377 21.3851489188 1.88253463067
3912 1 12.8718579974 24.2403293696 1.89069843258
3943 1 13.8648323517 22.8071133337 3.63234023103
3945 1 14.5969643806 22.8115685871 0.870835317009
3913 1 11.8559128723 22.8232328641 0.152541156508
3466 1 15.5993518677 21.3838511048 2.6136093844
3497 1 18.3351145304 21.3805786294 3.33939477945
3944 1 15.6044119179 24.2343456672 2.61409027085
3975 1 18.3348075309 24.2326898769 3.33799973552
3976 1 17.3325797214 22.8084020616 1.5933459113
3499 1 19.0619190346 21.3811442326 0.572455786734
3531 1 21.7964978892 21.3758277359 1.29913493645
3977 1 19.0621559981 24.2349610465 0.571315802183
4008 1 20.0654990879 22.8045411642 2.31824503581
4009 1 21.7950894563 24.2283259481 1.29743473771
3562 1 24.5364881568 21.3688505229 2.02918896693
4039 1 22.8017511387 22.7975008073 3.04510626194
4040 1 24.5326174514 24.2196843432 2.02392611605
4041 1 23.5264494796 22.7985749164 0.279524812299
3594 1 27.28487803 21.3643530365 2.75553369619
4072 1 27.2741407213 24.2192451075 2.73928270822
4073 1 26.2658121844 22.7910210754 1.00665311995
4105 1 29.0152296305 22.7969441753 1.72261187281
3626 1 30.0249844682 21.3688436986 3.46633649018
3628 1 30.7456766042 21.366374465 0.70627522523