ITEM: TIMESTEP
4000
ITEM: NUMBER OF ATOMS
9560
ITEM: BOX BOUNDS pp pp pp
0.0 88.6430375159
0.0 28.55
0.0 44.3215187579
ITEM: ATOMS id type x y z
2 1 1.14308746559 1.35108860583 1.54531848685
491 2 2.4941334113 2.92535165273 0.36124789017
489 1 2.40526629914 2.80437642334 3.0741050913
13 1 3.6192692401 0.554105490186 0.402826920491
1 1 0.127263437943 2.81637352988 3.31030501903
12 2 4.43579353383 1.55578995061 2.42863820107
29 1 6.76253245801 1.4555689501 2.97671160973
508 1 5.77017522046 2.56531839328 0.828397466368
490 1 4.17841690522 4.04460990905 1.95977444955
31 1 7.64823702582 1.39333035364 0.274427222952
57 1 10.175307021 1.46239361051 0.955412133262
534 1 8.41660705999 2.9011744311 1.96348927077
565 1 11.1380700627 2.91851259713 2.704848226
88 1 12.8761383428 1.47218118943 1.67295931761
597 1 13.8551367126 2.91738739237 3.4209624991
599 1 14.6058079109 2.88866989242 0.644063038011
121 1 14.6057479807 0.0376376658757 0.647378619549
119 1 13.8665363414 0.0449434944669 3.41363320748
87 1 11.1481741964 0.0381955604656 2.70100945785
120 1 15.5947563819 1.46862561505 2.38810561782
151 1 18.3351378807 1.4573616804 3.10638562245
630 1 17.3314065421 2.88347861575 1.36321543338
152 1 17.3256427171 0.0340955090283 1.35799681968
153 1 19.0628730635 1.45325276767 0.341277478998
185 1 21.8049481979 1.45337455705 1.07111757948
662 1 20.0700510719 2.88152997865 2.08835811158
184 1 20.0685102381 0.0279621733796 2.08735264327
216 1 24.5427044741 1.45227804251 1.79890237761
693 1 22.8044360872 2.88223890417 2.81764653876
695 1 23.5400007659 2.88087612146 0.0553685076182
725 1 25.5378257279 2.88202559233 3.54675080606
217 1 23.5414915283 0.0260025162887 0.0526692172348
215 1 22.8069388476 0.0254238968953 2.81560274162
247 1 25.5422571684 0.0248773718637 3.5439455202
248 1 27.2766094883 1.45369794141 2.52912869207
727 1 26.2756794403 2.88283704476 0.785681593347
759 1 29.0117098942 2.88473583279 1.51949497806
281 1 29.0202925637 0.0281038651036 1.50891258243
249 1 26.285481164 0.0238972176856 0.778980589792
280 1 30.0040695976 1.45588837321 3.26725476713
282 1 30.7549178463 1.46230419717 0.505951720763
791 1 31.737335672 2.88671690039 2.26553866318
313 1 31.737451998 0.0249895575001 2.25090903899
314 1 33.4656051087 1.4509578358 1.26919320608
345 1 36.2162383231 1.44836121809 2.04238614889
822 1 34.4724738772 2.888573635 3.01953076722
824 1 35.1681273828 2.87972377497 0.312044943688
346 1 35.1994223015 0.0190343509925 0.263448075454
344 1 34.4643432274 0.0292024753941 3.00986817244
376 1 38.9789363212 1.43045382293 2.87281647043
855 1 37.9683301912 2.88044723001 1.19409261282
378 1 39.7629176238 1.48731626808 0.238733889018
377 1 38.0072800009 0.0252158350544 1.0934672191
887 2 40.5768387379 2.88092512387 2.06411589399
410 1 42.5521667172 1.45534193855 0.940398600299
918 1 43.8545486333 2.82628993157 2.62723750885
409 1 40.8100796533 0.0657287399731 1.88454258614
440 1 43.7772863824 0.126651081057 2.74790430522
408 1 41.8948110606 1.49645385147 3.59958564367
4866 2 45.9210143628 1.60557874252 2.89397314272
4900 1 47.9679182245 0.0525760637273 2.58590862053
5344 1 48.0484661634 2.87729171583 2.62200532854
4899 1 49.8195124572 1.43688844403 3.33436624215
5411 1 50.7356411553 2.96053828216 1.57359604242
4901 2 49.1380348175 1.62241446007 0.846923062766
4932 1 52.4505963183 1.39933713341 2.52915683106
4964 1 55.2074935273 1.3980338319 1.79383900016
5443 1 53.4451365482 2.85186073418 0.787569021507
5441 1 54.2143833598 2.81893771051 3.53703797454
4997 1 57.9593678388 1.38582535972 1.06936850115
5474 1 56.965145252 2.80497685164 2.81143063711
5315 1 56.2221207524 2.83270910895 0.0498804385287
5028 1 61.4263722251 1.3841468835 3.10874518767
5030 1 60.6868192135 1.38182487108 0.347676509421
5507 1 59.6956438331 2.80004737951 2.09463624342
5540 1 62.4178502175 2.80440333487 1.37200009093
5061 1 64.1514973437 1.38210489574 2.39625885141
5572 1 65.1507827337 2.81045020761 0.649470535041
5570 1 65.8852214086 2.81100890215 3.41783785254
5093 1 66.8876263123 1.3894479728 1.67328662228
5126 1 69.6208205259 1.39685072053 0.954034473311
5603 1 68.6192836027 2.8203320111 2.695747877
5157 1 73.0730976433 1.39506318366 3.00363820405
5636 1 71.3555502549 2.83679341424 1.96788026799
4998 1 72.3465791098 1.40808650268 0.237841621449
5189 1 75.7874303262 1.39360647506 2.28987035929
5668 1 74.0604439657 2.84283147916 1.26465964521
5698 1 76.7507692687 2.84234356228 0.548520240797
5696 1 77.5170564339 2.82177816629 3.30500659171
5219 1 78.5094980566 1.40567349148 1.5651161463
5718 1 80.2373092588 2.83472815927 2.58587512932
5241 1 81.2103557297 1.41682949758 0.84903147154
5731 1 82.9487678393 2.82089403476 1.86305522757
5239 1 81.9851585375 1.39064113087 3.61610217222
5127 1 83.916678067 1.42228175501 0.0826873692915
5252 1 84.7220207081 1.36559474644 2.86783526692
5257 1 87.4049516787 1.38119322624 2.13776772592
5736 1 85.6645578006 2.81882094891 1.10668361662
481 1 88.4247925728 2.87232253228 0.198495016389
3 1 88.2032308194 0.0358288090758 0.304346493635
480 1 1.11053140837 4.37151677317 1.43688925501
958 1 1.28332723342 7.13323225005 1.85954158505
969 1 2.76136247236 5.62480035709 0.179754490505
967 2 2.69221540519 5.46260575741 2.70928313871
479 1 0.769671458086 5.18705589631 3.68319798268
968 1 3.9516427386 7.17865798152 2.09767832789
507 1 6.63235587794 4.30899857692 2.88180465491
985 1 6.5679903027 7.15257354344 2.89684850794
986 1 5.69258688077 5.690009627 1.08096108769
987 1 7.38799956859 7.14259315817 0.137384299564
509 1 7.43828702318 4.28584647657 0.197675540265
535 1 10.1470297613 4.32137348739 0.939362452206
1012 1 8.37989979038 5.75169476845 1.92599354647
1013 1 10.1268973309 7.15335588621 0.922736943601
1011 1 9.34314357972 7.17990477798 3.65632254936
533 1 9.36534034294 4.32318926289 3.67468552998
1043 1 11.1176014966 5.74805494361 2.69411790578
566 1 12.8687537688 4.33090013812 1.68003462525
1044 1 12.8666373607 7.1524346696 1.67817188346
1075 1 13.8665463735 5.74928760092 3.42640216251
1077 1 14.6111374145 5.74193261036 0.652252902267
598 1 15.6027343436 4.32251998442 2.39511681954
629 1 18.3395384885 4.31344925133 3.10760562469
1076 1 15.6170182763 7.17549908393 2.40694793043
1107 1 18.3417505958 7.18432273692 3.10971985302
1108 1 17.3409096758 5.74241633822 1.37011793862
631 1 19.0686365745 4.30726865026 0.344374827131
663 1 21.8037905268 4.30980871651 1.07289717774
1109 1 19.0739043178 7.16193332101 0.342811437021
1140 1 20.0685719675 5.74306378196 2.09082578034
1141 1 21.8061667414 7.16348752717 1.06979836405
694 1 24.537243679 4.31117493751 1.80256642245
1171 1 22.7983369909 5.74317814115 2.82075998606
1172 1 24.5382353307 7.16537136023 1.80169595695
1173 1 23.5403440087 5.73533829189 0.054514915477
1203 1 25.536079752 5.73963046288 3.5485782843
726 1 27.2724885834 4.31080756147 2.53327839315
1204 1 27.2742138218 7.1647390753 2.53236538404
1205 1 26.2750483228 5.7363859462 0.785786260562
1237 1 29.0107705899 5.73633734642 1.51920278893
758 1 30.0025818373 4.31290762176 3.27135623382
760 1 30.7526581967 4.30965521986 0.508549947881
1236 1 30.0042598528 7.16692936227 3.2690264267
1238 1 30.7522653804 7.15501950195 0.502593616873
1269 1 31.7372518386 5.74201151102 2.26311436621
792 1 33.4677004145 4.32043148729 1.27021727104
823 1 36.2183321345 4.32660876567 2.0407867393
1270 1 33.4751635488 7.1656350154 1.24974650164
1300 1 34.4760575585 5.74889973861 3.01110884824
1301 1 36.2298764509 7.16140912132 1.9986095142
1302 1 35.2023572709 5.74885279829 0.262728567218
854 1 38.9573791693 4.36009845368 2.86356522551
1332 1 39.0271562725 7.16653649602 2.75494084316
1333 1 37.9962942782 5.74696691316 1.06326825
856 1 39.7399711418 4.25276147065 0.207973358153
1396 1 42.5086008167 4.23871257389 0.819767583529
1365 1 40.7531544993 5.67829433883 1.79705992496
1364 1 41.9689480753 7.2049984786 3.15673069726
1366 1 42.3221883831 7.14709604057 0.705330642126
6217 1 43.6192277445 5.35272099737 2.6259794873
886 1 41.7901634989 4.26949283227 3.54853151337
6302 2 44.2969735783 7.32901017689 2.01066686588
5346 2 45.0798934442 4.29178773931 0.930159905817
5379 1 46.996550228 5.91733270565 0.0600744964684
5739 1 48.0579228476 5.71226054736 2.41036887245
5377 1 49.8052582157 4.3040625441 3.4303118772
5855 1 49.7790238614 7.09698393417 3.33404764005
5889 1 50.6130267438 5.60889991976 1.50594740455
5857 1 49.0040739649 7.2018252384 0.618251993368
5410 1 52.4849439243 4.28435553356 2.55620812059
5442 1 55.2238040351 4.23780457504 1.79704665237
5888 1 52.489890998 7.04592568988 2.53164293371
5920 1 55.2513839497 7.06583003753 1.79920381122
5921 1 53.4810626868 5.6581852978 0.782450668471
5919 1 54.2501792073 5.6628030798 3.55450007379
5475 1 57.9655499761 4.23504329417 1.06589527368
5952 1 56.9768433708 5.65073991161 2.81665199041
5953 1 57.9648795758 7.07362201607 1.06324654239
5793 1 56.2203515644 5.6461394683 0.036548833083
5506 1 61.4254671399 4.22760234939 3.11650252195
5508 1 60.6849706369 4.2323780287 0.342834166444
5984 1 61.4291289918 7.0858249189 3.11422751225
5985 1 59.6981671556 5.65632660472 2.09255765871
5986 1 60.6863113845 7.08022272843 0.340701590591
6018 1 62.4193291496 5.65745922949 1.36868168412
5539 1 64.1513347245 4.23291703644 2.39407990637
6017 1 64.152494672 7.08668172472 2.39177567356
6050 1 65.1483762246 5.6615713768 0.648113951648
6048 1 65.8830840403 5.66312573021 3.4186279236
5571 1 66.8827244786 4.2398063184 1.6733158309
5604 1 69.6252456657 4.25474280769 0.951025775574
6049 1 66.880331769 7.090113278 1.67296375005
6081 1 68.6137328558 5.66686014748 2.69736839127
6082 1 69.6208134177 7.08645043289 0.951395096049
5635 1 73.0587325043 4.23702175799 3.02219095767
6113 1 73.0517049262 7.11045818109 3.02089644763
6114 1 71.3591855757 5.67232320209 1.97176785313
5476 1 72.3595069449 4.27556671871 0.231261060097
5954 1 72.3546177677 7.07953988446 0.230545513068
5667 1 75.7993987429 4.24669805188 2.29393947513
6145 1 75.7930543694 7.12065682217 2.28879947794
6146 2 74.0900480178 5.68073965175 1.39271200154
6176 1 76.7501652437 5.70085274636 0.535965750266
6174 1 77.5098629869 5.68655010471 3.29966862083
5697 1 78.4961853232 4.27167276581 1.55205470763
6175 1 78.5041313729 7.11219980116 1.5340408693
6196 1 80.2346295887 5.69250745219 2.5726895186
5719 1 81.2080539851 4.27942732764 0.821899725371
6197 1 81.220633888 7.11806571601 0.803846635175
5730 1 84.6592742182 4.23768055876 2.89868155334
6208 1 84.7197559742 7.06795367752 2.86906288036
6209 1 82.9419923009 5.6857014612 1.8447269735
6195 1 81.9800847713 7.11244540003 3.59796827555
5717 1 81.96626017 4.26099514155 3.60571568604
5605 1 83.8779325091 4.23749087468 0.0826318324507
6083 1 83.9537481635 7.10729347632 0.0805822231823
5735 1 87.4058945329 4.26633696849 2.05245628433
6213 1 87.5657788122 6.64285601048 2.08605339931
6214 1 85.5444707639 5.58046112889 1.15692857069
1437 2 88.2180064559 7.97311784284 0.365914092539
1436 1 3.0472501653 8.64617870934 0.533812925003
1925 1 2.94684681938 11.4885799588 0.375339882675
1923 2 2.4149649398 11.5945806415 2.9129728508
1445 1 1.80202326662 9.07250118058 3.0773170182
1915 1 0.135003956841 11.173712881 2.42343348682
1446 1 3.94258468174 10.0382260989 2.15888537783
1463 1 6.584252779 9.98779250319 2.91799636853
1464 1 5.66380024144 8.58429126964 1.13049893917
1942 1 5.67827162422 11.4284278889 1.12900940331
1465 1 7.39237827702 9.98333181614 0.135341617462
1490 1 8.35442566224 8.56737806183 1.91301846647
1491 1 10.1253461618 9.97451521155 0.919062979768
1968 1 8.37865261651 11.3901460359 1.91551688275
1489 1 9.35133555986 9.97543946102 3.67462160775
1999 1 11.1125056106 11.4022177238 2.67201917506
1521 1 11.1197719945 8.55737766795 2.68614868298
1522 1 12.8635398871 9.98766538941 1.6654472866
1553 1 13.8673159971 8.57212795535 3.41982914781
1555 1 14.6097570722 8.57793672354 0.65168523299
2031 1 13.8741466326 11.4020674393 3.40831196906
2033 1 14.6087640382 11.414863874 0.650699430644
1554 1 15.6207494143 9.99616517394 2.39810748743
1585 2 18.3760579724 10.0076593839 2.9760979614
1586 1 17.3332124687 8.57254017286 1.35074165428
2064 1 17.331797608 11.4360538037 1.35124915831
1587 1 19.0753097581 10.0090499625 0.340789235727
1618 1 20.0879404665 8.57776159161 2.07709200987
1619 1 21.8080789321 10.014032215 1.06688944479
2096 1 20.0877856094 11.4452110642 2.0774110848
1649 1 22.7989149931 8.59448984684 2.81802273758
1650 1 24.541960218 10.0176401418 1.80010743188
2127 1 22.8000793975 11.4374494092 2.81796024778
2129 1 23.5447484867 11.4424953154 0.0517816253108
1651 1 23.5436845503 8.58889935945 0.0520715012157
1681 1 25.5399379759 8.5929774131 3.54726951065
2159 1 25.5432996882 11.4463824642 3.54707918599
1682 1 27.2782101212 10.0195628923 2.53084331605
1683 1 26.2780624524 8.58965270867 0.783915398885
1715 1 29.0129901554 8.58848538957 1.51584125052
2161 1 26.2800616096 11.4456649331 0.783813349321
2193 1 29.0154022689 11.4464330751 1.51507423239
1714 1 30.0094770937 10.0205858646 3.26430040959
1716 1 30.7497210439 10.0114973886 0.500534056006
1747 1 31.7419977548 8.59115790251 2.253425518
2225 1 31.7500762449 11.4427235715 2.24612928103
1748 1 33.4895193138 10.003449774 1.23274233132
1778 1 34.4820813235 8.58603919225 2.99172939353
1779 1 36.2236535645 9.99749430208 1.96816693803
2256 1 34.4800904275 11.438391991 2.97818537084
2258 1 35.2195589895 11.4318016882 0.218248684882
1780 1 35.2404889033 8.55668766896 0.220904433235
1810 1 38.9174274864 10.0047568542 2.69915173799
1811 1 37.9729668108 8.5542034309 0.955755235455
2289 1 37.9350242042 11.4419730759 0.930146664239
2321 1 40.5748858978 11.4773242172 1.60327416665
1843 1 40.6728366379 8.623239442 1.66231713927
1844 1 42.3794180694 10.0888606121 0.672586800969
2352 1 43.3799510308 11.615552689 2.33606989517
1842 1 41.4714763529 10.1161557192 3.35396649744
1874 1 43.50529623 9.23004933625 2.73688646331
5856 2 46.7768109315 8.58124983293 0.308766077874
6695 1 45.3670621074 10.4309231096 1.21613064655
6812 1 47.8699952585 11.4056546655 2.2107870614
6334 1 47.9815414692 8.50110429399 2.40685649965
6215 1 45.284476724 10.7293016694 3.63776584357
6333 1 49.7999785053 9.94441076537 3.23447478894
6335 1 49.0786338236 9.83608437108 0.691735522927
6367 1 50.8229946263 8.48428978911 1.57658865955
6845 1 50.7732922236 11.3851120158 1.50372811817
6366 1 52.5378548827 9.9383903888 2.50545990579
6398 1 55.2633062855 9.94450031353 1.79875835162
6399 1 53.5478325932 8.48632798361 0.804101003233
6877 1 53.5556421491 11.4158556543 0.798785242308
6875 1 54.2607392711 11.3804891057 3.53338854469
6397 1 54.2522744286 8.50068496921 3.53454637045
6430 1 56.9812266039 8.50975749039 2.8132699626
6431 1 57.9759015022 9.93687655479 1.06775300115
6908 1 56.9884179073 11.3796891823 2.81536760833
6749 1 56.2621544205 11.3832199915 0.0586208706391
6271 1 56.2394122354 8.49484465669 0.0460532470759
6462 1 61.433238276 9.93934239892 3.11509345675
6463 1 59.6987205883 8.5090480185 2.08965987093
6464 1 60.6929461256 9.93452383235 0.344490563957
6496 1 62.4217845311 8.51110260259 1.36772363786
6941 1 59.7129699244 11.371488266 2.0940267403
6974 1 62.4253814017 11.3718683464 1.37392218008
6495 1 64.1536204214 9.94252490586 2.39406086071
6528 1 65.1478672232 8.51564731156 0.648887431514
7006 1 65.1474118299 11.3736743934 0.653320111295
6526 1 65.8834751141 8.51487417523 3.41875066963
7004 1 65.8826897839 11.3734433343 3.41889086508
6527 1 66.8794812169 9.94454322278 1.67503018541
6559 1 68.6122956978 8.51562512166 2.6960800865
6560 1 69.6100514915 9.94596647186 0.955547718368
7037 1 68.608735568 11.3736619798 2.70089393324
6591 1 73.0580170224 9.94770094835 3.00350502186
6592 1 71.3456022666 8.50843760723 1.96749790782
7070 1 71.3334090784 11.3773048806 1.98203992183
6432 1 72.336682415 9.94424898823 0.237198954889
6623 1 75.7793340365 9.94710709707 2.27715247115
6624 1 74.0514455039 8.51195924794 1.25900059127
6654 1 76.7664079951 8.5148039173 0.517309800645
7102 1 74.0558941022 11.3828094826 1.26587759744
7132 1 76.7829946461 11.378743606 0.543351603384
6652 1 77.5096914703 8.52993220881 3.29450936454
7130 1 77.518853977 11.3715830624 3.29983390136
6653 1 78.5179262685 9.94439580943 1.54201249567
6674 1 80.2476544075 8.52757838777 2.56638980705
7152 1 80.2740088886 11.3598903354 2.57338359762
6675 1 81.2694367869 9.93949654027 0.820685759558
6686 1 84.7889476298 9.87309569377 2.87169490394
6687 1 82.997306116 8.51112054006 1.84448019102
7165 1 83.047707065 11.3155017519 1.85744969811
6673 1 82.0047232975 9.92378400135 3.59799694511
6561 1 84.0753536385 9.91502434712 0.114513957012
6691 1 87.7788866527 9.14160039104 2.34071658199
6692 1 85.7670501386 8.44278115517 1.14310482004
7170 1 85.9636606219 11.2164367927 1.2381265016
1914 1 1.23091206386 13.0954532833 1.22918696028
2392 2 1.47489632055 15.6468492326 1.56180906872
2401 1 1.55058371031 14.1980043379 3.31959571369
2403 1 3.01427407943 14.3329912607 0.187912638778
2402 1 3.88800230742 15.6200991907 2.20024967441
1924 1 3.9486285843 12.9641471393 2.0827471738
1941 1 6.65187324925 12.8109697188 2.90893098885
2419 1 6.65137338006 15.7260580146 2.93486048407
2420 1 5.71037963226 14.2864464752 1.17677025579
2421 1 7.42523181285 15.7002915694 0.186000724463
1943 1 7.41943382457 12.8281226025 0.154804734856
1969 1 10.1257854076 12.827983881 0.920977302607
2446 1 8.38805578921 14.2615945419 1.93116603577
2447 1 10.1370753022 15.6869633299 0.931082337461
1967 1 9.35823004544 12.8254272554 3.67529305384
2445 1 9.36561581141 15.6901308426 3.69111890758
2477 1 11.1156575424 14.2577175434 2.67513267352
2000 1 12.8637796077 12.831454718 1.66549483404
2478 1 12.8662046471 15.6886359478 1.66561279403
2509 1 13.8684152238 14.2583464737 3.40411848336
2511 1 14.6072290447 14.2627220337 0.65223824702
2032 1 15.6163532741 12.8264502912 2.4020985704
2063 1 18.3387253104 12.8313486675 3.11050454872
2510 1 15.6074135171 15.6936585375 2.38992597189
2541 1 18.3401320843 15.7048111398 3.10871540025
2542 1 17.3410401147 14.2701545673 1.37123562844
2065 1 19.0732205356 12.8557646692 0.343845516486
2097 1 21.8071322335 12.8639572518 1.06957466321
2543 1 19.0717246904 15.7112343676 0.346320595751
2574 1 20.0686508229 14.2784361097 2.09184591194
2575 1 21.8048110075 15.71747391 1.07193289596
2128 1 24.5415748584 12.8698178658 1.80109090735
2605 1 22.8007397168 14.2874784127 2.81993157298
2606 1 24.5405039701 15.72353684 1.80075085941
2607 1 23.5423363516 14.2964396091 0.0531716209656
2637 1 25.5435685089 14.2991624338 3.5476538852
2160 1 27.2811811783 12.8762207456 2.53156895446
2638 1 27.2818046632 15.7312518428 2.53109253592
2639 1 26.2792787643 14.3015050815 0.784505384557
2671 1 29.0176325396 14.3059061276 1.51524494757
2192 1 30.0165188142 12.8775097099 3.26252914061
2194 1 30.7507215134 12.8746980298 0.500742695253
2670 1 30.0193428759 15.7366405746 3.26215737334
2672 1 30.7524879915 15.7394032117 0.498909677707
2703 1 31.751854895 14.3074404691 2.2443190204
2226 1 33.4839460122 12.8718452773 1.23067676885
2257 1 36.2072069681 12.8730696464 1.95643194957
2704 1 33.4868759621 15.7449439679 1.22762876166
2734 1 34.4774077169 14.308258383 2.97392386873
2735 1 36.2140895586 15.7474762552 1.95263864159
2736 1 35.2109440684 14.3108756668 0.213800852507
2288 1 38.8879135597 12.8821129856 2.67952657613
2766 1 38.9208208814 15.7291902213 2.68305648764
2767 1 37.9336327489 14.3177589392 0.920863411547
2799 1 40.5975136611 14.299077347 1.63781662538
2322 1 42.23465678 12.9751306565 0.581494601607
2800 1 42.4139725871 15.6446846222 0.584878934245
2830 1 43.4233392531 14.0574267357 2.29369093817
2798 1 41.5961420968 15.6493269073 3.3207727642
2320 1 41.5953146075 12.801258313 3.37063271195
7259 2 45.7121046947 12.6148525232 2.45922523016
6780 1 45.7216772437 14.8913805592 1.65504367356
6693 1 46.2664208628 12.5256269356 0.212824976022
7290 1 48.0270228698 13.9867723205 1.98308444135
6811 1 49.7998689548 12.7061929914 3.17761547322
6813 1 48.9638123064 12.6681464442 0.349605177591
7289 1 49.8506042757 15.7110027356 3.09855216825
7323 1 50.7120164055 14.0836012483 1.45891093645
7291 1 49.0586156547 15.6392121824 0.425971730252
6844 1 52.5238017742 12.8094447492 2.51466094272
6876 1 55.2595739074 12.8283330298 1.8018035129
7322 2 52.4818439453 15.625667716 2.50937993997
7355 1 53.4903871713 14.2302093017 0.762688788897
7353 1 54.2452454396 14.2285027377 3.53623591883
7354 1 55.2801188865 15.6182162948 1.81152604494
6909 1 57.9994580789 12.8051918555 1.07668631478
7386 1 57.0060157825 14.2298362215 2.8231006825
7387 1 58.014258031 15.6562108901 1.07883958065
7227 1 56.2711576748 14.2258123657 0.056463788614
6940 1 61.4404613655 12.8027310126 3.1170869416
6942 1 60.7087640311 12.8029877569 0.356438373949
7418 2 61.4437027936 15.6519864912 3.12265543527
7419 1 59.7214392702 14.228672421 2.09165334303
7420 1 60.7144400215 15.6585015431 0.354926093002
7452 1 62.4325607441 14.2314788148 1.37178218108
6973 1 64.1504776818 12.8078723649 2.39674092851
7451 1 64.1501801396 15.6687513931 2.3949355888
7484 1 65.1486921903 14.2386058471 0.659724071673
7482 1 65.8810233667 14.2376553831 3.41499613228
7005 1 66.8779393038 12.8030841969 1.67748336723
7038 1 69.6042188344 12.8074360466 0.959705624708
7483 1 66.8789730306 15.6651045919 1.67761249038
7515 1 68.604183915 14.2361820825 2.70197242101
7516 1 69.5993274702 15.6680162186 0.962734266382
7069 1 73.0581296584 12.8095955642 3.01254761369
7547 1 73.0648140918 15.6652631884 3.01467204042
7548 1 71.3311506572 14.2378638886 1.98751489211
6910 1 72.331094013 12.8126595387 0.242825374691
7388 1 72.3360915849 15.6634701011 0.244962696017
7101 1 75.7918546346 12.8075095396 2.29156449443
7579 1 75.8070001632 15.6615339087 2.29687430618
7580 1 74.0643707122 14.2381637309 1.27299140679
7610 1 76.8035127288 14.2299877769 0.554113666303
7608 1 77.5370045188 14.2279284538 3.31007434771
7131 1 78.5322362174 12.7893136973 1.56384557491
7609 1 78.5510679091 15.6507705572 1.57400135652
7630 1 80.2755923354 14.1932324493 2.57508849169
7631 1 81.2976245101 15.6368555465 0.86513747519
7153 1 81.3120997267 12.7718104824 0.834988954511
7643 1 83.0513608916 14.1970309174 1.82943167806
7164 1 84.7860432218 12.7379679909 2.83142023309
7629 1 81.9976471744 15.5972567973 3.57225924971
7151 1 82.034889615 12.7690582714 3.58667293813
7642 1 84.7498349401 15.6582670729 2.80436293222
7517 1 84.0723632017 15.7917804137 0.188054898395
7039 1 84.1347699059 12.6903889084 0.166907730129
7169 1 87.5899005596 13.1979889321 2.42564066088
7647 1 87.6629613519 15.7435953976 2.19801234376
7648 1 85.7511287723 14.2076205679 1.09220390914
2393 2 87.8455713057 14.0263900157 0.212014023636
2870 2 1.39515161085 18.7202100564 1.38789965833
2881 1 2.90241804927 17.1272519378 0.551606641411
3359 1 3.12568341348 19.8417587778 0.316984108177
2879 1 2.21022888439 17.1564957916 3.26210616736
3348 1 2.18618121723 20.306292029 2.68627025803
2880 1 3.91020885729 18.5782066642 2.23593547501
2897 1 6.6404643326 18.543567096 2.96300446656
2898 1 5.62307937267 17.1385714948 1.20230979941
3376 1 5.6691848474 19.9180731817 1.16398532199
2899 1 7.42493256966 18.529010717 0.220931817406
2924 1 8.4020174989 17.1225597054 1.94990098641
2925 1 10.146604156 18.5495805337 0.94301690056
3402 1 8.4004767523 19.9756364782 1.9634806082
2955 1 11.1234978068 17.1178538473 2.68231915269
3433 1 11.134893118 19.9782497614 2.68842880479
2956 1 12.872161946 18.5506976017 1.66720614168
2987 1 13.8692915194 17.1200280249 3.40333959597
2989 1 14.6067924478 17.1241630188 0.647137092924
3465 1 13.8746360104 19.9840629286 3.4036206005
3467 1 14.6090833199 19.9890129569 0.644881456163
2988 1 15.606726928 18.5582631982 2.38529801865
3019 1 18.3406873697 18.5680081363 3.10612300692
3020 1 17.338893356 17.1339682244 1.36601309806
3498 1 17.338252105 19.9972013479 1.3633545838
3021 1 19.0704086738 18.5717690527 0.343807482446
3052 1 20.0725349549 17.1425644598 2.08879966698
3053 1 21.8054064119 18.5783360124 1.06932904345
3530 1 20.0718492548 20.0046675408 2.0863595137
3083 1 22.8053982449 17.1479756444 2.81571207491
3084 1 24.5418295204 18.5821035563 1.79791091313
3561 1 22.8078805986 20.0093386738 2.81260136361
3085 1 23.5399039527 17.1524742844 0.0534770629451
3563 1 23.5399068369 20.0126166215 0.0519494363247
3593 1 25.5457927681 20.0105330224 3.54145992092
3115 1 25.5440988599 17.1537042113 3.54463899043
3116 1 27.2821753728 18.5854774017 2.52836500342
3117 1 26.2780971656 17.1572293539 0.783648065666
3149 1 29.018431672 17.1638216619 1.5134173424
3595 1 26.2787133557 20.0155391872 0.782166895751
3627 1 29.0197740137 20.0214444439 1.51144252221
3148 1 30.0206550993 18.5905706479 3.25873032393
3150 1 30.7555506277 18.602410619 0.497634981888
3181 1 31.755651472 17.1711664452 2.2395930469
3659 1 31.7600228965 20.0318337979 2.23782172806
3182 1 33.4971622915 18.6140201414 1.22439213927
3212 1 34.4873467356 17.178221908 2.96759039675
3213 1 36.2375067327 18.623930338 1.9498860336
3690 1 34.4944133955 20.0407249307 2.96596918807
3214 1 35.2265126793 17.1882876373 0.213451215874
3692 1 35.2445806302 20.0642222402 0.21515394914
3244 1 38.9750955425 18.6408316732 2.66817811689
3245 1 37.960587584 17.1866698741 0.934431122343
3723 1 37.9913451688 20.0815618592 0.936330538877
3277 1 40.5759482894 17.1593876095 1.60250621757
3721 1 37.2334375383 20.0569435558 3.68852171044
3243 1 37.2127890069 17.1802011051 3.69326144115
3755 1 40.7092137662 20.1638592831 1.60411365404
3278 1 42.2925713309 18.6068815356 0.487801607076
3276 1 41.4825165012 18.6540775065 3.40956832928
3786 1 43.2529934707 19.9574369325 2.20308023348
3308 2 42.7994683243 17.3682874886 2.23425538234
7171 1 44.2643631422 17.1269671444 0.0171943358218
7737 2 45.7607043502 17.0629853281 2.08824241131
7735 1 45.8643887714 19.0232535961 1.29270080875
8246 1 47.8764524045 20.1816364899 2.01745046186
7768 1 47.9949876867 17.0824931355 2.16348400914
7767 1 49.6825618314 18.5128475951 3.25227888148
7801 2 50.2311545627 17.5626459055 1.15785156426
8279 1 50.6896115215 19.9103317396 1.42568814883
7800 1 52.4042379078 18.4064782898 2.4501869242
7832 1 55.2602770176 18.4836328577 1.81347504739
7833 1 53.6413612839 17.0238020934 0.784960136391
8311 1 53.5342865955 19.9007009194 0.833286534439
7831 1 54.2199326829 17.0687063827 3.5197059953
8309 1 54.1837225632 19.9011484456 3.48910336183
7864 1 56.9949051078 17.070430653 2.81269160154
7865 1 58.0062318246 18.4993070397 1.07832900481
8342 1 56.9809858474 19.9264179319 2.808615726
7705 1 56.2763394097 17.0674136161 0.068242231259
8183 1 56.2631259525 19.9227299925 0.0736624530441
7896 1 61.4384692455 18.5082301574 3.11142107343
7897 1 59.722508731 17.0811309774 2.09357321888
7898 2 60.710264205 18.5162151826 0.348663254817
7930 1 62.4353655887 17.0862718388 1.37710839292
8375 1 59.7149356752 19.9345309107 2.09723785157
8408 1 62.4384398303 19.9343252496 1.37937297246
7929 1 64.1508897478 18.5042258298 2.39012785593
7962 1 65.1428851325 17.082871912 0.655999940217
8440 1 65.146882569 19.9353459643 0.652779378305
7960 1 65.8775478401 17.0824737727 3.41842447229
8438 1 65.8796980574 19.9384806335 3.41707332116
7961 2 66.8812776048 18.5112370926 1.67624306105
7993 1 68.6106096742 17.0850534093 2.70451157401
7994 1 69.5999778773 18.5116329814 0.961261673752
8471 1 68.6118866005 19.94100959 2.70204970939
8025 1 73.0719174596 18.5149221903 3.01226502802
8026 1 71.3330823974 17.0910309817 1.98588646669
8504 1 71.3363901845 19.9346318018 1.98259855386
7866 1 72.342423818 18.5093024622 0.241967569833
8057 1 75.8169196487 18.514444459 2.29610426494
8058 1 74.074455211 17.087417427 1.27280059465
8088 1 76.8166122432 17.0832663898 0.557351957978
8536 1 74.0783282426 19.9360966409 1.26935343664
8566 1 76.8180280771 19.9370493251 0.555460986197
8086 1 77.5552329835 17.0891961422 3.31354829796
8564 1 77.5646714076 19.9448986503 3.31495156934
8087 1 78.5659567039 18.5183577345 1.5781246005
8108 1 80.297378125 17.0831578733 2.58502948162
8586 1 80.3338423299 19.9544498848 2.59441951364
8109 1 81.3193114484 18.5400869738 0.86808146559
8121 1 83.019282815 17.1093952862 1.85240693727
8599 1 83.1720852247 19.9248081846 1.85867495394
8107 1 82.0410967958 18.5027476974 3.59746455452
8120 2 84.650301792 18.235294169 3.22075831364
2871 1 88.564784556 17.4231808725 0.266811371489
8125 1 87.7213564517 19.5789024264 1.39096775746
8126 1 85.9028046464 17.3149381747 1.21245928332
8604 2 85.5176177888 19.7933887721 0.738931187728
3835 1 1.9651696576 22.6439721676 3.359833893
3837 1 2.73620365579 22.6432763912 0.835604520148
3826 1 0.841733349712 24.0378675827 1.63536372989
8603 2 0.357759155585 21.8437840405 1.4368627785
3358 1 4.11975245094 21.4289168747 2.2807396593
3375 1 6.65949315515 21.4182917561 2.95669554626
3836 1 3.8076646931 24.2169302332 2.32748669628
3853 1 6.67554903517 24.2425106964 3.0251900622
3854 1 5.66854370682 22.9038531999 1.2392540467
3377 1 7.43350047764 21.4240942643 0.245615822635
3855 1 7.51815977454 24.2363677789 0.21200979644
3403 1 10.1585787117 21.4106913633 0.954016649693
3880 1 8.4308166579 22.8399095549 1.98276540863
3881 1 10.1796594179 24.2726222287 0.946779408154
3911 1 11.1481282865 22.8432614004 2.69266831271
3434 1 12.8791472748 21.4164855048 1.66836879164
3912 1 12.8852821091 24.2851128689 1.66655353271
3943 1 13.8780170366 22.8520449584 3.40481490825
3945 1 14.6112359783 22.8564274778 0.642148731826
3466 1 15.6076606901 21.4240873138 2.38380640582
3497 1 18.3390461609 21.4316106586 3.10440982486
3944 1 15.6050450348 24.292814702 2.38228725789
3975 1 18.3355086723 24.2952559569 3.1034576425
3976 1 17.335383207 22.8629614098 1.36080446656
3499 1 19.0675811413 21.4342801128 0.341511369499
3531 1 21.8043724041 21.4388460941 1.06742595281
3977 1 19.0634872787 24.2974451156 0.339586147771
4008 1 20.069158671 22.8660156889 2.08498569609
4009 1 21.802938878 24.296195251 1.0674085438
3562 1 24.5451280877 21.4427154881 1.79491719127
4039 1 22.8077288296 22.867273935 2.81203870036
4040 1 24.5456118492 24.2976509009 1.79439748371
4041 1 23.5404278832 22.8711235153 0.0503611986133
4071 1 25.546573735 22.8683496689 3.53972215193
3594 1 27.2840125486 21.4446194882 2.52365973851