#Header

5376 atoms

2 atom types

0.0 42.7297273569 xlo xhi
0.0 39.5600404449 ylo yhi
0.0 37.0050293879 zlo zhi


Atoms

1 1 8.39333930227 4.12083754633 0.440536064142
2 1 1.52606169132 4.12083754633 1.76214425657
3 1 1.58484336765e-16 2.4725025278 0.0
4 1 5.34121591963 4.12083754633 3.08375244898
5 1 3.81515422829 2.4725025278 1.32160819242
6 1 9.15637014792 4.12083754633 4.40536064142
7 1 7.63030845659 2.4725025278 2.64321638485
8 1 6.10424676528 3.29667003707 0.881072128283
9 1 6.10424676528 0.824167509269 0.881072128283
10 1 9.91940099358 3.29667003707 2.20268032071
11 1 9.91940099358 0.824167509269 2.20268032071
12 1 8.39333930227 1.64833501854 0.440536064142
13 1 2.28909253698 4.12083754633 5.72696883385
14 1 0.763030845659 2.4725025278 3.96482457728
15 1 6.10424676528 4.12083754633 7.04857702626
16 1 4.57818507395 2.4725025278 5.28643276972
17 1 3.05212338264 3.29667003707 3.52428851314
18 1 3.05212338264 0.824167509269 3.52428851314
19 1 1.52606169132 1.64833501854 1.76214425657
20 1 0.0 0.0 0.0
21 1 9.91940099358 4.12083754633 8.37018521869
22 1 8.39333930227 2.4725025278 6.60804096212
23 1 6.86727761093 3.29667003707 4.84589670555
24 1 6.86727761093 0.824167509269 4.84589670555
25 1 5.34121591963 1.64833501854 3.08375244898
26 1 3.81515422829 0.0 1.32160819242
27 1 9.15637014792 1.64833501854 4.40536064142
28 1 7.63030845659 0.0 2.64321638485
29 1 3.05212338264 4.12083754633 9.69179341113
30 1 1.52606169132 2.4725025278 7.92964915456
31 1 0.0 3.29667003707 6.16750489799
32 1 -6.33937347061e-16 0.824167509269 6.16750489799
33 1 6.86727761093 4.12083754633 11.0134016035
34 1 5.34121591963 2.4725025278 9.25125734697
35 1 3.81515422829 3.29667003707 7.48911309042
36 1 3.81515422829 0.824167509269 7.48911309042
37 1 2.28909253698 1.64833501854 5.72696883385
38 1 0.763030845659 -3.16968673532e-16 3.96482457728
39 1 9.15637014792 2.4725025278 10.5728655394
40 1 7.63030845659 3.29667003707 8.81072128283
41 1 7.63030845659 0.824167509269 8.81072128283
42 1 6.10424676528 1.64833501854 7.04857702626
43 1 4.57818507395 -6.33937347061e-16 5.28643276972
44 1 9.91940099358 1.64833501854 8.37018521869
45 1 8.39333930227 -1.26787469412e-15 6.60804096212
46 1 0.0 4.12083754633 12.335009796
47 1 3.81515422829 4.12083754633 13.6566179884
48 1 2.28909253698 2.4725025278 11.8944737318
49 1 0.763030845659 3.29667003707 10.1323294753
50 1 0.763030845659 0.824167509269 10.1323294753
51 1 7.63030845659 4.12083754633 14.9782261808
52 1 6.10424676528 2.4725025278 13.2160819242
53 1 4.57818507395 3.29667003707 11.4539376677
54 1 4.57818507395 0.824167509269 11.4539376677
55 1 3.05212338264 1.64833501854 9.69179341113
56 1 1.52606169132 -6.33937347061e-16 7.92964915456
57 1 9.91940099358 2.4725025278 14.5376901167
58 1 8.39333930227 3.29667003707 12.7755458601
59 1 8.39333930227 0.824167509269 12.7755458601
60 1 6.86727761093 1.64833501854 11.0134016035
61 1 5.34121591963 -1.26787469412e-15 9.25125734697
62 1 9.15637014792 -1.26787469412e-15 10.5728655394
63 1 0.763030845659 4.12083754633 16.2998343733
64 1 4.57818507395 4.12083754633 17.6214425657
65 1 3.05212338264 2.4725025278 15.8592983091
66 1 1.52606169132 3.29667003707 14.0971540525
67 1 1.52606169132 0.824167509269 14.0971540525
68 1 -1.26787469412e-15 1.64833501854 12.335009796
69 1 6.86727761093 2.4725025278 17.1809065015
70 1 5.34121591963 3.29667003707 15.418762245
71 1 5.34121591963 0.824167509269 15.418762245
72 1 3.81515422829 1.64833501854 13.6566179884
73 1 2.28909253698 -1.26787469412e-15 11.8944737318
74 1 9.15637014792 3.29667003707 16.7403704374
75 1 9.15637014792 0.824167509269 16.7403704374
76 1 7.63030845659 1.64833501854 14.9782261808
77 1 6.10424676528 -6.33937347061e-16 13.2160819242
78 1 9.91940099358 -1.26787469412e-15 14.5376901167
79 1 2.28909253698 3.29667003707 18.0619786298
80 1 2.28909253698 0.824167509269 18.0619786298
81 1 0.763030845659 1.64833501854 16.2998343733
82 1 4.57818507395 1.64833501854 17.6214425657
83 1 3.05212338264 -1.26787469412e-15 15.8592983091
84 1 6.86727761093 -1.26787469412e-15 17.1809065015
85 1 8.39333930227 4.12083754633 18.9430507581
86 1 1.52606169132 4.12083754633 20.2646589505
87 1 1.58484336765e-16 2.4725025278 18.502514694
88 1 5.34121591963 4.12083754633 21.5862671429
89 1 3.81515422829 2.4725025278 19.8241228864
90 1 9.15637014792 4.12083754633 22.9078753354
91 1 7.63030845659 2.4725025278 21.1457310788
92 1 6.10424676528 3.29667003707 19.3835868222
93 1 6.10424676528 0.824167509269 19.3835868222
94 1 9.91940099358 3.29667003707 20.7051950147
95 1 9.91940099358 0.824167509269 20.7051950147
96 1 8.39333930227 1.64833501854 18.9430507581
97 1 2.28909253698 4.12083754633 24.2294835278
98 1 0.763030845659 2.4725025278 22.4673392712
99 1 6.10424676528 4.12083754633 25.5510917202
100 1 4.57818507395 2.4725025278 23.7889474637
101 1 3.05212338264 3.29667003707 22.0268032071
102 1 3.05212338264 0.824167509269 22.0268032071
103 1 1.52606169132 1.64833501854 20.2646589505
104 1 0.0 0.0 18.502514694
105 1 9.91940099358 4.12083754633 26.8726999127
106 1 8.39333930227 2.4725025278 25.1105556561
107 1 6.86727761093 3.29667003707 23.3484113995
108 1 6.86727761093 0.824167509269 23.3484113995
109 1 5.34121591963 1.64833501854 21.5862671429
110 1 3.81515422829 0.0 19.8241228864
111 1 9.15637014792 1.64833501854 22.9078753354
112 1 7.63030845659 0.0 21.1457310788
113 1 3.05212338264 4.12083754633 28.1943081051
114 1 1.52606169132 2.4725025278 26.4321638485
115 1 0.0 3.29667003707 24.6700195919
116 1 -6.33937347061e-16 0.824167509269 24.6700195919
117 1 6.86727761093 4.12083754633 29.5159162975
118 1 5.34121591963 2.4725025278 27.7537720409
119 1 3.81515422829 3.29667003707 25.9916277844
120 1 3.81515422829 0.824167509269 25.9916277844
121 1 2.28909253698 1.64833501854 24.2294835278
122 1 0.763030845659 -3.16968673532e-16 22.4673392712
123 1 9.15637014792 2.4725025278 29.0753802334
124 1 7.63030845659 3.29667003707 27.3132359768
125 1 7.63030845659 0.824167509269 27.3132359768
126 1 6.10424676528 1.64833501854 25.5510917202
127 1 4.57818507395 -6.33937347061e-16 23.7889474637
128 1 9.91940099358 1.64833501854 26.8726999127
129 1 8.39333930227 -1.26787469412e-15 25.1105556561
130 1 0.0 4.12083754633 30.8375244899
131 1 3.81515422829 4.12083754633 32.1591326823
132 1 2.28909253698 2.4725025278 30.3969884258
133 1 0.763030845659 3.29667003707 28.6348441692
134 1 0.763030845659 0.824167509269 28.6348441692
135 1 7.63030845659 4.12083754633 33.4807408748
136 1 6.10424676528 2.4725025278 31.7185966182
137 1 4.57818507395 3.29667003707 29.9564523616
138 1 4.57818507395 0.824167509269 29.9564523616
139 1 3.05212338264 1.64833501854 28.1943081051
140 1 1.52606169132 -6.33937347061e-16 26.4321638485
141 1 9.91940099358 2.4725025278 33.0402048106
142 1 8.39333930227 3.29667003707 31.2780605541
143 1 8.39333930227 0.824167509269 31.2780605541
144 1 6.86727761093 1.64833501854 29.5159162975
145 1 5.34121591963 -1.26787469412e-15 27.7537720409
146 1 9.15637014792 -1.26787469412e-15 29.0753802334
147 1 0.763030845659 4.12083754633 34.8023490672
148 1 4.57818507395 4.12083754633 36.1239572596
149 1 3.05212338264 2.4725025278 34.3618130031
150 1 1.52606169132 3.29667003707 32.5996687465
151 1 1.52606169132 0.824167509269 32.5996687465
152 1 -1.26787469412e-15 1.64833501854 30.8375244899
153 1 6.86727761093 2.4725025278 35.6834211955
154 1 5.34121591963 3.29667003707 33.9212769389
155 1 5.34121591963 0.824167509269 33.9212769389
156 1 3.81515422829 1.64833501854 32.1591326823
157 1 2.28909253698 -1.26787469412e-15 30.3969884258
158 1 9.15637014792 3.29667003707 35.2428851313
159 1 9.15637014792 0.824167509269 35.2428851313
160 1 7.63030845659 1.64833501854 33.4807408748
161 1 6.10424676528 -6.33937347061e-16 31.7185966182
162 1 9.91940099358 -1.26787469412e-15 33.0402048106
163 1 2.28909253698 3.29667003707 36.5644933238
164 1 2.28909253698 0.824167509269 36.5644933238
165 1 0.763030845659 1.64833501854 34.8023490672
166 1 4.57818507395 1.64833501854 36.1239572596
167 1 3.05212338264 -1.26787469412e-15 34.3618130031
168 1 6.86727761093 -1.26787469412e-15 35.6834211955
169 1 8.39333930227 9.06584260194 0.440536064142
170 1 1.52606169132 9.06584260194 1.76214425657
171 1 1.58484336765e-16 7.41750758342 0.0
172 1 5.34121591963 9.06584260194 3.08375244898
173 1 3.81515422829 7.41750758342 1.32160819242
174 1 9.15637014792 9.06584260194 4.40536064142
175 1 7.63030845659 7.41750758342 2.64321638485
176 1 6.10424676528 8.24167509269 0.881072128283
177 1 6.10424676528 5.76917256488 0.881072128283
178 1 9.91940099358 8.24167509269 2.20268032071
179 1 9.91940099358 5.76917256488 2.20268032071
180 1 8.39333930227 6.59334007415 0.440536064142
181 1 2.28909253698 9.06584260194 5.72696883385
182 1 0.763030845659 7.41750758342 3.96482457728
183 1 6.10424676528 9.06584260194 7.04857702626
184 1 4.57818507395 7.41750758342 5.28643276972
185 1 3.05212338264 8.24167509269 3.52428851314
186 1 3.05212338264 5.76917256488 3.52428851314
187 1 1.52606169132 6.59334007415 1.76214425657
188 1 0.0 4.94500505561 0.0
189 1 9.91940099358 9.06584260194 8.37018521869
190 1 8.39333930227 7.41750758342 6.60804096212
191 1 6.86727761093 8.24167509269 4.84589670555
192 1 6.86727761093 5.76917256488 4.84589670555
193 1 5.34121591963 6.59334007415 3.08375244898
194 1 3.81515422829 4.94500505561 1.32160819242
195 1 9.15637014792 6.59334007415 4.40536064142
196 1 7.63030845659 4.94500505561 2.64321638485
197 1 3.05212338264 9.06584260194 9.69179341113
198 1 1.52606169132 7.41750758342 7.92964915456
199 1 0.0 8.24167509269 6.16750489799
200 1 -6.33937347061e-16 5.76917256488 6.16750489799
201 1 6.86727761093 9.06584260194 11.0134016035
202 1 5.34121591963 7.41750758342 9.25125734697
203 1 3.81515422829 8.24167509269 7.48911309042
204 1 3.81515422829 5.76917256488 7.48911309042
205 1 2.28909253698 6.59334007415 5.72696883385
206 1 0.763030845659 4.94500505561 3.96482457728
207 1 9.15637014792 7.41750758342 10.5728655394
208 1 7.63030845659 8.24167509269 8.81072128283
209 1 7.63030845659 5.76917256488 8.81072128283
210 1 6.10424676528 6.59334007415 7.04857702626
211 1 4.57818507395 4.94500505561 5.28643276972
212 1 9.91940099358 6.59334007415 8.37018521869
213 1 8.39333930227 4.94500505561 6.60804096212
214 1 0.0 9.06584260194 12.335009796
215 1 3.81515422829 9.06584260194 13.6566179884
216 1 2.28909253698 7.41750758342 11.8944737318
217 1 0.763030845659 8.24167509269 10.1323294753
218 1 0.763030845659 5.76917256488 10.1323294753
219 1 7.63030845659 9.06584260194 14.9782261808
220 1 6.10424676528 7.41750758342 13.2160819242
221 1 4.57818507395 8.24167509269 11.4539376677
222 1 4.57818507395 5.76917256488 11.4539376677
223 1 3.05212338264 6.59334007415 9.69179341113
224 1 1.52606169132 4.94500505561 7.92964915456
225 1 9.91940099358 7.41750758342 14.5376901167
226 1 8.39333930227 8.24167509269 12.7755458601
227 1 8.39333930227 5.76917256488 12.7755458601
228 1 6.86727761093 6.59334007415 11.0134016035
229 1 5.34121591963 4.94500505561 9.25125734697
230 1 9.15637014792 4.94500505561 10.5728655394
231 1 0.763030845659 9.06584260194 16.2998343733
232 1 4.57818507395 9.06584260194 17.6214425657
233 1 3.05212338264 7.41750758342 15.8592983091
234 1 1.52606169132 8.24167509269 14.0971540525
235 1 1.52606169132 5.76917256488 14.0971540525
236 1 -1.26787469412e-15 6.59334007415 12.335009796
237 1 6.86727761093 7.41750758342 17.1809065015
238 1 5.34121591963 8.24167509269 15.418762245
239 1 5.34121591963 5.76917256488 15.418762245
240 1 3.81515422829 6.59334007415 13.6566179884
241 1 2.28909253698 4.94500505561 11.8944737318
242 1 9.15637014792 8.24167509269 16.7403704374
243 1 9.15637014792 5.76917256488 16.7403704374
244 1 7.63030845659 6.59334007415 14.9782261808
245 1 6.10424676528 4.94500505561 13.2160819242
246 1 9.91940099358 4.94500505561 14.5376901167
247 1 2.28909253698 8.24167509269 18.0619786298
248 1 2.28909253698 5.76917256488 18.0619786298
249 1 0.763030845659 6.59334007415 16.2998343733
250 1 4.57818507395 6.59334007415 17.6214425657
251 1 3.05212338264 4.94500505561 15.8592983091
252 1 6.86727761093 4.94500505561 17.1809065015
253 1 8.39333930227 9.06584260194 18.9430507581
254 1 1.52606169132 9.06584260194 20.2646589505
255 1 1.58484336765e-16 7.41750758342 18.502514694
256 1 5.34121591963 9.06584260194 21.5862671429
257 1 3.81515422829 7.41750758342 19.8241228864
258 1 9.15637014792 9.06584260194 22.9078753354
259 1 7.63030845659 7.41750758342 21.1457310788
260 1 6.10424676528 8.24167509269 19.3835868222
261 1 6.10424676528 5.76917256488 19.3835868222
262 1 9.91940099358 8.24167509269 20.7051950147
263 1 9.91940099358 5.76917256488 20.7051950147
264 1 8.39333930227 6.59334007415 18.9430507581
265 1 2.28909253698 9.06584260194 24.2294835278
266 1 0.763030845659 7.41750758342 22.4673392712
267 1 6.10424676528 9.06584260194 25.5510917202
268 1 4.57818507395 7.41750758342 23.7889474637
269 1 3.05212338264 8.24167509269 22.0268032071
270 1 3.05212338264 5.76917256488 22.0268032071
271 1 1.52606169132 6.59334007415 20.2646589505
272 1 0.0 4.94500505561 18.502514694
273 1 9.91940099358 9.06584260194 26.8726999127
274 1 8.39333930227 7.41750758342 25.1105556561
275 1 6.86727761093 8.24167509269 23.3484113995
276 1 6.86727761093 5.76917256488 23.3484113995
277 1 5.34121591963 6.59334007415 21.5862671429
278 1 3.81515422829 4.94500505561 19.8241228864
279 1 9.15637014792 6.59334007415 22.9078753354
280 1 7.63030845659 4.94500505561 21.1457310788
281 1 3.05212338264 9.06584260194 28.1943081051
282 1 1.52606169132 7.41750758342 26.4321638485
283 1 0.0 8.24167509269 24.6700195919
284 1 -6.33937347061e-16 5.76917256488 24.6700195919
285 1 6.86727761093 9.06584260194 29.5159162975
286 1 5.34121591963 7.41750758342 27.7537720409
287 1 3.81515422829 8.24167509269 25.9916277844
288 1 3.81515422829 5.76917256488 25.9916277844
289 1 2.28909253698 6.59334007415 24.2294835278
290 1 0.763030845659 4.94500505561 22.4673392712
291 1 9.15637014792 7.41750758342 29.0753802334
292 1 7.63030845659 8.24167509269 27.3132359768
293 1 7.63030845659 5.76917256488 27.3132359768
294 1 6.10424676528 6.59334007415 25.5510917202
295 1 4.57818507395 4.94500505561 23.7889474637
296 1 9.91940099358 6.59334007415 26.8726999127
297 1 8.39333930227 4.94500505561 25.1105556561
298 1 0.0 9.06584260194 30.8375244899
299 1 3.81515422829 9.06584260194 32.1591326823
300 1 2.28909253698 7.41750758342 30.3969884258
301 1 0.763030845659 8.24167509269 28.6348441692
302 1 0.763030845659 5.76917256488 28.6348441692
303 1 7.63030845659 9.06584260194 33.4807408748
304 1 6.10424676528 7.41750758342 31.7185966182
305 1 4.57818507395 8.24167509269 29.9564523616
306 1 4.57818507395 5.76917256488 29.9564523616
307 1 3.05212338264 6.59334007415 28.1943081051
308 1 1.52606169132 4.94500505561 26.4321638485
309 1 9.91940099358 7.41750758342 33.0402048106
310 1 8.39333930227 8.24167509269 31.2780605541
311 1 8.39333930227 5.76917256488 31.2780605541
312 1 6.86727761093 6.59334007415 29.5159162975
313 1 5.34121591963 4.94500505561 27.7537720409
314 1 9.15637014792 4.94500505561 29.0753802334
315 1 0.763030845659 9.06584260194 34.8023490672
316 1 4.57818507395 9.06584260194 36.1239572596
317 1 3.05212338264 7.41750758342 34.3618130031
318 1 1.52606169132 8.24167509269 32.5996687465
319 1 1.52606169132 5.76917256488 32.5996687465
320 1 -1.26787469412e-15 6.59334007415 30.8375244899
321 1 6.86727761093 7.41750758342 35.6834211955
322 1 5.34121591963 8.24167509269 33.9212769389
323 1 5.34121591963 5.76917256488 33.9212769389
324 1 3.81515422829 6.59334007415 32.1591326823
325 1 2.28909253698 4.94500505561 30.3969884258
326 1 9.15637014792 8.24167509269 35.2428851313
327 1 9.15637014792 5.76917256488 35.2428851313
328 1 7.63030845659 6.59334007415 33.4807408748
329 1 6.10424676528 4.94500505561 31.7185966182
330 1 9.91940099358 4.94500505561 33.0402048106
331 1 2.28909253698 8.24167509269 36.5644933238
332 1 2.28909253698 5.76917256488 36.5644933238
333 1 0.763030845659 6.59334007415 34.8023490672
334 1 4.57818507395 6.59334007415 36.1239572596
335 1 3.05212338264 4.94500505561 34.3618130031
336 1 6.86727761093 4.94500505561 35.6834211955
337 1 8.39333930227 14.0108476576 0.440536064142
338 1 1.52606169132 14.0108476576 1.76214425657
339 1 1.58484336765e-16 12.362512639 0.0
340 1 5.34121591963 14.0108476576 3.08375244898
341 1 3.81515422829 12.362512639 1.32160819242
342 1 9.15637014792 14.0108476576 4.40536064142
343 1 7.63030845659 12.362512639 2.64321638485
344 1 6.10424676528 13.1866801483 0.881072128283
345 1 6.10424676528 10.7141776205 0.881072128283
346 1 9.91940099358 13.1866801483 2.20268032071
347 1 9.91940099358 10.7141776205 2.20268032071
348 1 8.39333930227 11.5383451298 0.440536064142
349 1 2.28909253698 14.0108476576 5.72696883385
350 1 0.763030845659 12.362512639 3.96482457728
351 1 6.10424676528 14.0108476576 7.04857702626
352 1 4.57818507395 12.362512639 5.28643276972
353 1 3.05212338264 13.1866801483 3.52428851314
354 1 3.05212338264 10.7141776205 3.52428851314
355 1 1.52606169132 11.5383451298 1.76214425657
356 1 0.0 9.89001011122 0.0
357 1 9.91940099358 14.0108476576 8.37018521869
358 1 8.39333930227 12.362512639 6.60804096212
359 1 6.86727761093 13.1866801483 4.84589670555
360 1 6.86727761093 10.7141776205 4.84589670555
361 1 5.34121591963 11.5383451298 3.08375244898
362 1 3.81515422829 9.89001011122 1.32160819242
363 1 9.15637014792 11.5383451298 4.40536064142
364 1 7.63030845659 9.89001011122 2.64321638485
365 1 3.05212338264 14.0108476576 9.69179341113
366 1 1.52606169132 12.362512639 7.92964915456
367 1 0.0 13.1866801483 6.16750489799
368 1 -6.33937347061e-16 10.7141776205 6.16750489799
369 1 6.86727761093 14.0108476576 11.0134016035
370 1 5.34121591963 12.362512639 9.25125734697
371 1 3.81515422829 13.1866801483 7.48911309042
372 1 3.81515422829 10.7141776205 7.48911309042
373 1 2.28909253698 11.5383451298 5.72696883385
374 1 0.763030845659 9.89001011122 3.96482457728
375 1 9.15637014792 12.362512639 10.5728655394
376 1 7.63030845659 13.1866801483 8.81072128283
377 1 7.63030845659 10.7141776205 8.81072128283
378 1 6.10424676528 11.5383451298 7.04857702626
379 1 4.57818507395 9.89001011122 5.28643276972
380 1 9.91940099358 11.5383451298 8.37018521869
381 1 8.39333930227 9.89001011122 6.60804096212
382 1 0.0 14.0108476576 12.335009796
383 1 3.81515422829 14.0108476576 13.6566179884
384 1 2.28909253698 12.362512639 11.8944737318
385 1 0.763030845659 13.1866801483 10.1323294753
386 1 0.763030845659 10.7141776205 10.1323294753
387 1 7.63030845659 14.0108476576 14.9782261808
388 1 6.10424676528 12.362512639 13.2160819242
389 1 4.57818507395 13.1866801483 11.4539376677
390 1 4.57818507395 10.7141776205 11.4539376677
391 1 3.05212338264 11.5383451298 9.69179341113
392 1 1.52606169132 9.89001011122 7.92964915456
393 1 9.91940099358 12.362512639 14.5376901167
394 1 8.39333930227 13.1866801483 12.7755458601
395 1 8.39333930227 10.7141776205 12.7755458601
396 1 6.86727761093 11.5383451298 11.0134016035
397 1 5.34121591963 9.89001011122 9.25125734697
398 1 9.15637014792 9.89001011122 10.5728655394
399 1 0.763030845659 14.0108476576 16.2998343733
400 1 4.57818507395 14.0108476576 17.6214425657
401 1 3.05212338264 12.362512639 15.8592983091
402 1 1.52606169132 13.1866801483 14.0971540525
403 1 1.52606169132 10.7141776205 14.0971540525
404 1 -1.26787469412e-15 11.5383451298 12.335009796
405 1 6.86727761093 12.362512639 17.1809065015
406 1 5.34121591963 13.1866801483 15.418762245
407 1 5.34121591963 10.7141776205 15.418762245
408 1 3.81515422829 11.5383451298 13.6566179884
409 1 2.28909253698 9.89001011122 11.8944737318
410 1 9.15637014792 13.1866801483 16.7403704374
411 1 9.15637014792 10.7141776205 16.7403704374
412 1 7.63030845659 11.5383451298 14.9782261808
413 1 6.10424676528 9.89001011122 13.2160819242
414 1 9.91940099358 9.89001011122 14.5376901167
415 1 2.28909253698 13.1866801483 18.0619786298
416 1 2.28909253698 10.7141776205 18.0619786298
417 1 0.763030845659 11.5383451298 16.2998343733
418 1 4.57818507395 11.5383451298 17.6214425657
419 1 3.05212338264 9.89001011122 15.8592983091
420 1 6.86727761093 9.89001011122 17.1809065015
421 1 8.39333930227 14.0108476576 18.9430507581
422 1 1.52606169132 14.0108476576 20.2646589505
423 1 1.58484336765e-16 12.362512639 18.502514694
424 1 5.34121591963 14.0108476576 21.5862671429
425 1 3.81515422829 12.362512639 19.8241228864
426 1 9.15637014792 14.0108476576 22.9078753354
427 1 7.63030845659 12.362512639 21.1457310788
428 1 6.10424676528 13.1866801483 19.3835868222
429 1 6.10424676528 10.7141776205 19.3835868222
430 1 9.91940099358 13.1866801483 20.7051950147
431 1 9.91940099358 10.7141776205 20.7051950147
432 1 8.39333930227 11.5383451298 18.9430507581
433 1 2.28909253698 14.0108476576 24.2294835278
434 1 0.763030845659 12.362512639 22.4673392712
435 1 6.10424676528 14.0108476576 25.5510917202
436 1 4.57818507395 12.362512639 23.7889474637
437 1 3.05212338264 13.1866801483 22.0268032071
438 1 3.05212338264 10.7141776205 22.0268032071
439 1 1.52606169132 11.5383451298 20.2646589505
440 1 0.0 9.89001011122 18.502514694
441 1 9.91940099358 14.0108476576 26.8726999127
442 1 8.39333930227 12.362512639 25.1105556561
443 1 6.86727761093 13.1866801483 23.3484113995
444 1 6.86727761093 10.7141776205 23.3484113995
445 1 5.34121591963 11.5383451298 21.5862671429
446 1 3.81515422829 9.89001011122 19.8241228864
447 1 9.15637014792 11.5383451298 22.9078753354
448 1 7.63030845659 9.89001011122 21.1457310788
449 1 3.05212338264 14.0108476576 28.1943081051
450 1 1.52606169132 12.362512639 26.4321638485
451 1 0.0 13.1866801483 24.6700195919
452 1 -6.33937347061e-16 10.7141776205 24.6700195919
453 1 6.86727761093 14.0108476576 29.5159162975
454 1 5.34121591963 12.362512639 27.7537720409
455 1 3.81515422829 13.1866801483 25.9916277844
456 1 3.81515422829 10.7141776205 25.9916277844
457 1 2.28909253698 11.5383451298 24.2294835278
458 1 0.763030845659 9.89001011122 22.4673392712
459 1 9.15637014792 12.362512639 29.0753802334
460 1 7.63030845659 13.1866801483 27.3132359768
461 1 7.63030845659 10.7141776205 27.3132359768
462 1 6.10424676528 11.5383451298 25.5510917202
463 1 4.57818507395 9.89001011122 23.7889474637
464 1 9.91940099358 11.5383451298 26.8726999127
465 1 8.39333930227 9.89001011122 25.1105556561
466 1 0.0 14.0108476576 30.8375244899
467 1 3.81515422829 14.0108476576 32.1591326823
468 1 2.28909253698 12.362512639 30.3969884258
469 1 0.763030845659 13.1866801483 28.6348441692
470 1 0.763030845659 10.7141776205 28.6348441692
471 1 7.63030845659 14.0108476576 33.4807408748
472 1 6.10424676528 12.362512639 31.7185966182
473 1 4.57818507395 13.1866801483 29.9564523616
474 1 4.57818507395 10.7141776205 29.9564523616
475 1 3.05212338264 11.5383451298 28.1943081051
476 1 1.52606169132 9.89001011122 26.4321638485
477 1 9.91940099358 12.362512639 33.0402048106
478 1 8.39333930227 13.1866801483 31.2780605541
479 1 8.39333930227 10.7141776205 31.2780605541
480 1 6.86727761093 11.5383451298 29.5159162975
481 1 5.34121591963 9.89001011122 27.7537720409
482 1 9.15637014792 9.89001011122 29.0753802334
483 1 0.763030845659 14.0108476576 34.8023490672
484 1 4.57818507395 14.0108476576 36.1239572596
485 1 3.05212338264 12.362512639 34.3618130031
486 1 1.52606169132 13.1866801483 32.5996687465
487 1 1.52606169132 10.7141776205 32.5996687465
488 1 -1.26787469412e-15 11.5383451298 30.8375244899
489 1 6.86727761093 12.362512639 35.6834211955
490 1 5.34121591963 13.1866801483 33.9212769389
491 1 5.34121591963 10.7141776205 33.9212769389
492 1 3.81515422829 11.5383451298 32.1591326823
493 1 2.28909253698 9.89001011122 30.3969884258
494 1 9.15637014792 13.1866801483 35.2428851313
495 1 9.15637014792 10.7141776205 35.2428851313
496 1 7.63030845659 11.5383451298 33.4807408748
497 1 6.10424676528 9.89001011122 31.7185966182
498 1 9.91940099358 9.89001011122 33.0402048106
499 1 2.28909253698 13.1866801483 36.5644933238
500 1 2.28909253698 10.7141776205 36.5644933238
501 1 0.763030845659 11.5383451298 34.8023490672
502 1 4.57818507395 11.5383451298 36.1239572596
503 1 3.05212338264 9.89001011122 34.3618130031
504 1 6.86727761093 9.89001011122 35.6834211955
505 1 8.39333930227 18.9558527132 0.440536064142
506 1 1.52606169132 18.9558527132 1.76214425657
507 1 1.58484336765e-16 17.3075176946 0.0
508 1 5.34121591963 18.9558527132 3.08375244898
509 1 3.81515422829 17.3075176946 1.32160819242
510 1 9.15637014792 18.9558527132 4.40536064142
511 1 7.63030845659 17.3075176946 2.64321638485
512 1 6.10424676528 18.1316852039 0.881072128283
513 1 6.10424676528 15.6591826761 0.881072128283
514 1 9.91940099358 18.1316852039 2.20268032071
515 1 9.91940099358 15.6591826761 2.20268032071
516 1 8.39333930227 16.4833501854 0.440536064142
517 1 2.28909253698 18.9558527132 5.72696883385
518 1 0.763030845659 17.3075176946 3.96482457728
519 1 6.10424676528 18.9558527132 7.04857702626
520 1 4.57818507395 17.3075176946 5.28643276972
521 1 3.05212338264 18.1316852039 3.52428851314
522 1 3.05212338264 15.6591826761 3.52428851314
523 1 1.52606169132 16.4833501854 1.76214425657
524 1 0.0 14.8350151668 0.0
525 1 9.91940099358 18.9558527132 8.37018521869
526 1 8.39333930227 17.3075176946 6.60804096212
527 1 6.86727761093 18.1316852039 4.84589670555
528 1 6.86727761093 15.6591826761 4.84589670555
529 1 5.34121591963 16.4833501854 3.08375244898
530 1 3.81515422829 14.8350151668 1.32160819242
531 1 9.15637014792 16.4833501854 4.40536064142
532 1 7.63030845659 14.8350151668 2.64321638485
533 1 3.05212338264 18.9558527132 9.69179341113
534 1 1.52606169132 17.3075176946 7.92964915456
535 1 0.0 18.1316852039 6.16750489799
536 1 -6.33937347061e-16 15.6591826761 6.16750489799
537 1 6.86727761093 18.9558527132 11.0134016035
538 1 5.34121591963 17.3075176946 9.25125734697
539 1 3.81515422829 18.1316852039 7.48911309042
540 1 3.81515422829 15.6591826761 7.48911309042
541 1 2.28909253698 16.4833501854 5.72696883385
542 1 0.763030845659 14.8350151668 3.96482457728
543 1 9.15637014792 17.3075176946 10.5728655394
544 1 7.63030845659 18.1316852039 8.81072128283
545 1 7.63030845659 15.6591826761 8.81072128283
546 1 6.10424676528 16.4833501854 7.04857702626
547 1 4.57818507395 14.8350151668 5.28643276972
548 1 9.91940099358 16.4833501854 8.37018521869
549 1 8.39333930227 14.8350151668 6.60804096212
550 1 0.0 18.9558527132 12.335009796
551 1 3.81515422829 18.9558527132 13.6566179884
552 1 2.28909253698 17.3075176946 11.8944737318
553 1 0.763030845659 18.1316852039 10.1323294753
554 1 0.763030845659 15.6591826761 10.1323294753
555 1 7.63030845659 18.9558527132 14.9782261808
556 1 6.10424676528 17.3075176946 13.2160819242
557 1 4.57818507395 18.1316852039 11.4539376677
558 1 4.57818507395 15.6591826761 11.4539376677
559 1 3.05212338264 16.4833501854 9.69179341113
560 1 1.52606169132 14.8350151668 7.92964915456
561 1 9.91940099358 17.3075176946 14.5376901167
562 1 8.39333930227 18.1316852039 12.7755458601
563 1 8.39333930227 15.6591826761 12.7755458601
564 1 6.86727761093 16.4833501854 11.0134016035
565 1 5.34121591963 14.8350151668 9.25125734697
566 1 9.15637014792 14.8350151668 10.5728655394
567 1 0.763030845659 18.9558527132 16.2998343733
568 1 4.57818507395 18.9558527132 17.6214425657
569 1 3.05212338264 17.3075176946 15.8592983091
570 1 1.52606169132 18.1316852039 14.0971540525
571 1 1.52606169132 15.6591826761 14.0971540525
572 1 -1.26787469412e-15 16.4833501854 12.335009796
573 1 6.86727761093 17.3075176946 17.1809065015
574 1 5.34121591963 18.1316852039 15.418762245
575 1 5.34121591963 15.6591826761 15.418762245
576 1 3.81515422829 16.4833501854 13.6566179884
577 1 2.28909253698 14.8350151668 11.8944737318
578 1 9.15637014792 18.1316852039 16.7403704374
579 1 9.15637014792 15.6591826761 16.7403704374
580 1 7.63030845659 16.4833501854 14.9782261808
581 1 6.10424676528 14.8350151668 13.2160819242
582 1 9.91940099358 14.8350151668 14.5376901167
583 1 2.28909253698 18.1316852039 18.0619786298
584 1 2.28909253698 15.6591826761 18.0619786298
585 1 0.763030845659 16.4833501854 16.2998343733
586 1 4.57818507395 16.4833501854 17.6214425657
587 1 3.05212338264 14.8350151668 15.8592983091
588 1 6.86727761093 14.8350151668 17.1809065015
589 1 8.39333930227 18.9558527132 18.9430507581
590 1 1.52606169132 18.9558527132 20.2646589505
591 1 1.58484336765e-16 17.3075176946 18.502514694
592 1 5.34121591963 18.9558527132 21.5862671429
593 1 3.81515422829 17.3075176946 19.8241228864
594 1 9.15637014792 18.9558527132 22.9078753354
595 1 7.63030845659 17.3075176946 21.1457310788
596 1 6.10424676528 18.1316852039 19.3835868222
597 1 6.10424676528 15.6591826761 19.3835868222
598 1 9.91940099358 18.1316852039 20.7051950147
599 1 9.91940099358 15.6591826761 20.7051950147
600 1 8.39333930227 16.4833501854 18.9430507581
601 1 2.28909253698 18.9558527132 24.2294835278
602 1 0.763030845659 17.3075176946 22.4673392712
603 1 6.10424676528 18.9558527132 25.5510917202
604 1 4.57818507395 17.3075176946 23.7889474637
605 1 3.05212338264 18.1316852039 22.0268032071
606 1 3.05212338264 15.6591826761 22.0268032071
607 1 1.52606169132 16.4833501854 20.2646589505
608 1 0.0 14.8350151668 18.502514694
609 1 9.91940099358 18.9558527132 26.8726999127
610 1 8.39333930227 17.3075176946 25.1105556561
611 1 6.86727761093 18.1316852039 23.3484113995
612 1 6.86727761093 15.6591826761 23.3484113995
613 1 5.34121591963 16.4833501854 21.5862671429
614 1 3.81515422829 14.8350151668 19.8241228864
615 1 9.15637014792 16.4833501854 22.9078753354
616 1 7.63030845659 14.8350151668 21.1457310788
617 1 3.05212338264 18.9558527132 28.1943081051
618 1 1.52606169132 17.3075176946 26.4321638485
619 1 0.0 18.1316852039 24.6700195919
620 1 -6.33937347061e-16 15.6591826761 24.6700195919
621 1 6.86727761093 18.9558527132 29.5159162975
622 1 5.34121591963 17.3075176946 27.7537720409
623 1 3.81515422829 18.1316852039 25.9916277844
624 1 3.81515422829 15.6591826761 25.9916277844
625 1 2.28909253698 16.4833501854 24.2294835278
626 1 0.763030845659 14.8350151668 22.4673392712
627 1 9.15637014792 17.3075176946 29.0753802334