ITEM: TIMESTEP
26000
ITEM: NUMBER OF ATOMS
5248
ITEM: BOX BOUNDS pp pp pp
0.0 45.68
0.0 36.5618393957
0.0 36.5618393957
ITEM: ATOMS id type x y z
409 2 3.25174851443 1.10129680678 2.08780258163
39 1 1.79284205202 3.17975118334 2.11952237675
181 1 1.02566193442 0.479479019525 2.13141048918
697 1 7.24589764923 1.70632201768 0.0630559361244
737 1 5.89361407195 1.51191815359 2.07086765317
695 1 7.2259653906 3.51077950613 2.31171189096
367 1 4.34606710532 3.42918789403 2.24481240928
369 1 4.46691471327 1.64000701745 0.0796166732118
1025 1 10.0322581378 1.69999429084 0.0799388769235
1065 1 8.64232057519 1.49400801114 2.07825151362
1023 1 10.0248299053 3.50725697956 2.33900487168
1393 1 11.4117163723 1.49453402657 2.10256891831
1353 1 12.8036775255 1.72497702313 0.0990418143832
1721 1 14.2056053021 1.5211294262 2.09042364893
1351 1 12.8140041801 3.52112688308 2.33745276472
1681 1 15.588221323 1.74389726347 0.068269579619
2049 1 16.9610694939 1.60827005747 2.03315575731
1679 1 15.5901083697 3.57253367202 2.30297854053
2007 1 18.4067975603 3.54806962542 2.30992421532
2009 1 18.555643146 1.75993004898 0.195078475896
2377 1 19.9538752423 1.69894267834 2.26603152456
2337 1 21.427376996 2.03636085885 0.22164202536
2477 2 21.8596391272 0.479057746185 2.13048922589
2706 1 22.8767896344 0.0950939464704 0.147365191415
2336 1 22.9507828448 2.45645277968 2.22598892896
3032 1 25.9050417239 2.40472507067 2.03175283088
2665 1 24.3966459021 0.464927122728 2.3472079717
3034 1 25.7395460276 0.262102537841 0.284806258306
2731 1 24.3517801934 2.21005519301 0.0774590866291
3360 2 28.67003577 2.39823913296 1.85197441653
3321 1 30.0923058548 0.4861028484 2.1978215751
2993 1 27.2986277274 0.46497071404 2.18044727136
3362 1 28.6850840752 0.274847100663 0.207704066722
3649 1 32.8639695732 0.530465635186 2.18099896805
3688 1 31.4154517895 2.52341887879 1.97781012233
3690 1 31.4562033365 0.291365747206 0.165159054982
4016 1 34.252705251 2.53666414506 1.96735656747
4018 1 34.2533999003 0.313017948537 0.164054622884
3977 1 35.6694013633 0.531891288609 2.1762126927
4344 1 37.0541662825 2.5487832899 1.96205463764
4346 1 37.0483829827 0.317698494727 0.152037431608
4305 1 38.4489674822 0.524376786072 2.16227795939
4672 1 39.8080579653 2.55354436156 1.94979491291
4633 1 41.2036745359 0.518630795065 2.15238517449
4674 1 39.8433124616 0.322872005447 0.128794818594
81 1 45.2558063231 2.48509953915 2.03772635006
5000 1 42.5621220495 2.54066847472 1.94642404697
4961 1 43.9183311624 0.523843020649 2.1910326311
5002 1 42.6263984482 0.303998635832 0.12820496511
408 1 2.87236799035 3.73872736418 0.155329063979
36 1 2.81480962108 5.35665023784 2.64989102832
77 1 0.0567760752004 5.03147199221 2.98605455136
35 1 1.45662732319 5.6631631827 0.604577515619
70 1 1.28672719899 7.23445375216 2.87941945613
736 1 5.77420703723 3.67065835795 0.311872006039
366 1 4.31466585027 5.61238148731 0.605086188809
694 1 7.19136161211 5.66787063284 0.565400841865
733 1 5.75345481604 5.45233152547 2.57292762834
1064 1 8.62966019632 3.7072358315 0.315436606596
1022 1 10.0210898207 5.71905123873 0.560983941594
1061 1 8.617543117 5.49878827001 2.57708752285
1392 1 11.4184529699 3.7227350551 0.327161146496
1389 1 11.4279327601 5.51907232885 2.57802684518
1720 1 14.2067776595 3.75091682734 0.31476772672
1350 1 12.8186445163 5.74501247507 0.558132148262
1717 1 14.2083286332 5.54058013246 2.55186592112
2048 1 17.0155652508 3.72067401229 0.285718429948
1678 1 15.657962591 5.7717721812 0.552018471452
2006 1 18.341369742 5.81347783947 0.382306546081
2045 1 17.0166405661 5.5497407021 2.55133726057
2335 1 21.2325348662 4.10192297159 2.39955173064
2376 1 19.9029765542 3.85082887383 0.324432533415
2373 2 19.5515067496 5.5495089373 2.18491454347
2387 1 21.3461139082 5.89630891311 0.358134955529
2759 1 21.444287967 6.86268260111 2.97172912724
2767 1 22.8411170018 4.08448128122 0.167158656452
2722 1 23.2491303142 6.26212410133 1.75164767732
2663 2 24.6550803501 4.32256297549 1.78813139973
3028 1 25.9046006187 6.46706369364 1.59860651811
2695 1 24.5444874901 6.87011254598 3.62066334709
2986 1 27.2794703656 4.44695177621 1.76656061362
3318 1 30.0201001769 4.5064300622 1.74576828081
3356 1 28.6014197518 6.50318377974 1.5387352026
3023 1 27.2151403411 6.79799827699 3.57332415637
3314 1 30.0383618469 6.79598905742 3.52521236841
3646 1 32.8167919424 4.52582023894 1.75214041559
3684 1 31.4048464259 6.52188387617 1.51478820495
3642 1 32.7988876641 6.75061037537 3.52603890838
4012 1 34.2071713822 6.54023360116 1.52279334301
3970 1 35.6259768004 6.75994058821 3.52935398846
3974 1 35.6411996917 4.54839865897 1.75648038934
4340 1 36.9859310484 6.56158692539 1.50964808615
4298 2 38.3891270513 6.87167971927 3.43280918559
4302 1 38.4118743349 4.56913887489 1.74910516868
4630 1 41.163247036 4.57927166309 1.75737488943
4668 1 39.7893446231 6.59175040087 1.54686049738
4626 1 41.1881293048 6.83868392862 3.55465656204
4958 1 43.8817993582 4.55136499427 1.73184727654
4996 1 42.5155696359 6.65423860923 1.59027349455
4954 1 44.1308817751 6.88700501735 3.34864836997
80 1 45.5519064732 4.04530965064 0.113008317797
404 1 2.91956176445 7.58101390832 0.78006970784
38 1 1.47160638638 9.44133958643 1.02752433603
392 1 2.78803690216 9.27972496053 3.07614943004
135 2 0.290996467279 7.60395238789 0.295943902427
362 1 4.25529552038 7.37133700422 2.84275889589
361 1 4.37177250832 9.54510173118 1.08095969183
689 1 7.17997265063 9.64327171175 1.04052046395
690 1 7.18543912926 7.44931741446 2.8112206332
727 1 5.74770962337 9.36922697205 3.07339518119
732 1 5.76231354815 7.60941660812 0.819001963254
1017 1 10.0044579685 9.69125887275 1.01856877104
1018 1 10.0230018637 7.50295317222 2.80558461086
1055 1 8.60189789493 9.46977474602 3.0313571732
1060 1 8.60062713758 7.68850210295 0.791862048069
1388 1 11.4245040824 7.73584445407 0.788954609083
1383 1 11.4302469503 9.50227538103 3.01630071701
1345 1 12.837748691 9.73009091985 1.00767679739
1346 1 12.8187601191 7.5263355224 2.78652618786
1711 1 14.2402384421 9.50951018336 3.01451978683
1716 1 14.234640906 7.74860287148 0.794343216004
2002 1 18.426021078 7.52009098284 2.81734081638
1673 1 15.6152509918 9.76540477093 0.975535589591
1674 1 15.6475726262 7.51191468019 2.80086267284
2039 1 16.9384035269 9.49290411009 3.01444461064
2044 1 17.0494313487 7.85643531899 0.797301489979
2001 1 18.5984915789 9.80972328967 1.12038863312
2334 1 19.8748346787 7.73886795635 0.747577506621
2367 2 20.2362932916 8.72371354973 3.11519618817
2372 1 22.7884835065 8.03336443038 0.315303243992
2329 2 21.2040871966 9.56662493955 0.283290144827
2323 1 22.9939245743 8.70534632545 3.15603998059
2421 1 23.1412075341 10.6530447808 0.95507913193
2059 1 24.6750545811 8.55492758268 1.47305151626
2657 1 25.8532417703 8.854399638 3.42256247767
3022 1 25.8509352087 10.6116296047 1.08870388306
2643 1 24.4561318281 10.8598328025 3.02912447696
2979 1 27.1934012113 10.822480822 3.12765196391
2985 1 27.2154778305 8.52700626516 1.32375933563
3307 1 29.9691079034 10.7896949895 3.09191236786
3313 1 29.9745768884 8.51709071733 1.28615552084
3350 1 28.5918173695 10.5179214324 1.06616899262
3351 1 28.5895470889 8.79260751036 3.33574299979
3635 1 32.7816724119 10.7741201813 3.07361196044
3641 1 32.7816817932 8.53678510531 1.28405698343
3678 1 31.3666604027 10.5320639766 1.05593786769
3679 1 31.3923707229 8.77869232008 3.29840380334
4007 1 34.1926955991 8.75861368346 3.30265506665
4006 1 34.1673979036 10.5503947342 1.06642465355
3963 1 35.5779400509 10.7761871316 3.0812211091
3969 1 35.58289359 8.56028123549 1.29548298561
4334 1 36.9705845853 10.5724214462 1.08651976862
4335 1 36.9659526146 8.79239419288 3.31599231465
4291 1 38.3574127552 10.7887822942 3.11208668612
4297 1 38.3763813559 8.58744401196 1.32943133772
4619 1 41.1540544558 10.8059142211 3.15277618491
4625 1 41.1641356949 8.64538352458 1.41722188811
4662 1 39.7562972212 10.6074107862 1.13090441922
4663 1 39.7834535783 8.81954305655 3.35743722736
33 1 45.5906366464 9.18194118584 3.2434072272
71 1 44.1905952949 8.76538603934 1.20981063197
4953 1 42.578581448 10.696838967 1.2610870178
4991 1 42.7043639719 8.87121415902 3.27598793067
4946 1 44.0633617992 10.9571669209 3.17733960345
398 1 2.92127158867 11.389910196 1.39623920065
399 1 1.31483598042 11.2394608995 3.25135828353
391 2 3.0745081733 13.0782615727 3.37964693873
453 1 1.30865711464 13.1332454495 1.4484834161
354 1 4.27631804585 13.6050025221 1.36555789279
355 1 4.36079904243 11.2714555633 3.28873168739
682 1 7.19467999933 13.642373876 1.50250562332
683 1 7.17143417511 11.4271494143 3.26777373253
726 1 5.78549086563 11.6214541767 1.28613942343
719 1 5.72366763609 13.3884122778 3.43124811721
1010 1 10.0071675715 13.6943229146 1.45446691136
1011 1 10.0132957956 11.4738879744 3.24027256257
1054 1 8.60118468526 11.6637976318 1.25621025492
1047 1 8.61381402298 13.450038254 3.45385536573
1382 2 11.4194673074 11.7095558383 1.2306628407
1375 1 11.4290953322 13.4861845028 3.43273354022
1338 1 12.8127981408 13.7339886148 1.43289423796
1339 1 12.8424284274 11.4959841623 3.232766597
1710 1 14.2302064782 11.7452233574 1.21745490334
1703 1 14.2112626251 13.5096377882 3.44163093053
1666 1 15.596197339 13.7561699422 1.41898858311
1667 1 15.6051844751 11.5027214105 3.24613233115
1994 1 18.4374339283 13.7624217172 1.57518862673
1995 1 17.036498334 11.7603764596 1.16346388329
2366 2 18.0966208365 11.4035399026 3.17475079023
2031 1 16.862963322 13.51147321 3.42879848264
2688 2 22.1125740768 10.9967737442 3.04531302405
2359 2 19.7214373345 12.0469595228 0.824754034352
2679 2 20.4477115214 13.9017649787 3.32151364321
2694 1 22.9197666199 13.020376171 2.71636145201
2642 1 25.8093114142 12.8445748794 2.68417722915
2382 1 24.3271083348 12.6995578412 0.668775062587
3014 1 25.9710185044 14.4947177476 0.601173539143
2978 1 27.2725670312 12.5198563158 0.796128708404
3306 1 29.9833114571 12.5306394354 0.822874570751
3343 1 28.5701290883 12.8155124929 2.84751780567
3342 1 28.6275857966 14.5328183937 0.568099698603
3634 1 32.7717812606 12.5487521429 0.816208966404
3670 1 31.3770926809 14.5522156701 0.579467125139
3671 1 31.3786049347 12.7831930887 2.83559288781
3999 1 34.1827280891 12.7767768352 2.83518194634
3998 1 34.1936026234 14.5472549252 0.554382445509
3962 1 35.5537823808 12.560258256 0.840480435772
4327 1 36.9616660775 12.7700096392 2.85225507079
4326 1 36.9345791263 14.5441424702 0.545630577649
4290 1 38.3620655269 12.5883833721 0.861748148429
4618 1 41.1088055012 12.6268439694 0.874095890298
4655 1 39.7251818577 12.7764998486 2.86962958082
4654 1 39.7092394791 14.5905602412 0.558929110391
129 1 45.5480560885 11.102164114 1.22412239795
63 1 45.2801554852 13.0416040167 3.01406117315
4938 1 42.5040380064 12.8131236566 2.85528358727
4990 1 43.9694803268 12.7654159037 0.923710442169
390 1 1.66589220083 15.0351928168 3.47104385691
83 2 0.736164630512 16.903656031 0.508584874927
26 2 3.2736746517 15.8363033449 1.74221675042
574 1 2.87196729599 17.8813189872 0.0987356030877
345 1 4.52212655487 17.7167012073 1.89869176392
673 1 7.22463423789 17.6885257959 1.84168195116
718 1 5.83196317197 15.6316024387 1.69579657878
1001 1 9.99023324045 17.729147874 1.83833343295
1046 1 8.60778382457 15.6825352048 1.65399587164
1002 1 10.0269326285 15.4818851328 3.63799664436
1374 1 11.3930091677 15.7210085009 1.63491420196
1329 1 12.7709741715 17.7593125145 1.84722972042
1702 1 14.1706011922 15.7602017349 1.63640555903
1330 1 12.7985310226 15.5228635829 3.6441622448
1657 1 15.6125577316 17.7707515089 1.86356439667
2030 1 17.0240364332 15.7539770857 1.66635079183
1985 1 18.5055842647 17.736899037 1.84286205948
1658 1 15.5334173234 15.5566028504 3.61097375059
1986 1 18.3645591973 15.4224312142 3.60074127947
2869 1 19.9626834186 15.665576029 1.73130646772
2313 2 21.2199697167 17.5570571597 1.9288182162
2678 2 22.6183828396 14.7622921367 1.37566951725
2866 1 24.4803914046 14.9571158665 2.58077885509
3006 1 25.8613027299 16.9320834879 2.11517156302
2641 1 24.2012753039 16.1457099583 0.119245315051
2970 1 27.20839885 14.8844725224 2.59102996576
3298 1 29.9857553113 14.807891634 2.59373435745
3297 1 29.9844330963 16.5680863297 0.34562309712
3334 1 28.5839344914 16.8287809128 2.32066454584
2969 1 27.2469777834 16.4200599712 0.195892408016
3626 1 32.7906520576 14.7796461174 2.58639992954
3625 1 32.7921483493 16.5541353689 0.347869154238
3662 1 31.3961864037 16.7965522434 2.35996312476
3990 1 34.1925405485 16.7790408615 2.36006447992
3954 1 35.5850425618 14.7719696938 2.59020172081
3953 1 35.5782800182 16.5496149202 0.334029220256
4318 1 36.9482458578 16.7892278947 2.35168166533
4282 2 38.3238768684 14.7771584604 2.58280794173
4610 1 41.0666897214 14.7745496168 2.55180229719
4646 1 39.6891635036 16.7773377845 2.31967415788
4609 1 41.0846269819 16.6102462604 0.308889468595
4281 1 38.3101741805 16.5700518981 0.320943941285
4982 1 42.4954635988 14.6262198077 0.533044970222
125 1 45.3820923666 14.7059239967 0.654628187152
27 2 43.7322831122 14.9137010931 2.4616005518
62 1 45.2607448334 16.7176622981 2.42847415408
4974 1 42.4161894507 16.8154194464 2.31308266882
4937 1 43.8933899695 16.6498655573 0.349100090649
17 1 0.991102880059 18.6791206626 2.19671269905
573 1 3.14539197984 19.6427926685 2.2115172747
244 1 1.74386938781 21.5499780233 2.42597048384
205 2 1.59611570474 20.1086897875 0.198621146847
572 1 3.02864375687 21.8749989077 0.339510987752
861 1 7.18321781301 19.9361482428 0.0381064799421
901 1 5.85241182894 19.7122330409 2.11083599923
859 1 7.20477215723 21.7310335099 2.31528157642
531 1 4.4615568885 21.6809615477 2.37991543475
533 1 4.33430563256 19.8646031539 0.127557261544
900 1 5.75515732479 21.8902052786 0.279978133502
1189 1 9.94216515991 19.9642408062 0.0355489596229
1229 1 8.58897703355 19.7252174604 2.08418946721
1187 1 9.98847880992 21.7454187122 2.30084588447
1557 1 11.3631482584 19.7549487519 2.05540049247
1517 1 12.784989033 19.9822584028 0.0890503416818
1885 1 14.2037212408 19.7569966746 2.07089642649
1515 1 12.7901596943 21.7464906016 2.3005977836
2213 1 17.0913666459 19.7503323369 2.05860713152
1845 1 15.6444051751 19.9977238257 0.0995778846353
1843 1 15.6132271255 21.7267197937 2.31925001588
2173 1 18.6029123921 20.0476484918 0.144477901061
2171 1 18.4920772662 21.7502221579 2.27509002777
2828 1 20.2102256554 19.9381580555 2.07962041162
2541 1 21.5868146121 20.4470198917 0.0372455762507
2500 2 24.2184059158 18.8348007794 2.48485027046
2868 1 23.043116778 20.7259283001 1.99150359006
3196 1 25.7676957481 20.8016756901 2.13374677393
2829 1 22.9900956582 18.3721938299 0.168586174171
2895 2 24.2987405524 20.8598851295 0.019202737327
3157 2 27.3982311626 18.9344367993 2.36880025317
3485 1 30.0143186845 18.8185589515 2.16214821227
3524 1 28.6316473468 20.8371438336 1.9799988623
3526 1 28.5469543447 18.5269772187 0.164191636986
3223 1 27.0565676485 20.3949679267 0.0711675706584
3854 1 31.4019710712 18.5678926724 0.146987475942
3813 1 32.8075546316 18.8006794636 2.15241161986
3852 1 31.4456791031 20.8316430499 1.94543747716
4182 1 34.1911410286 18.5699513877 0.131103679625
4180 1 34.2006587088 20.8094389819 1.93127365531
4510 1 36.9575458713 18.5867961733 0.120131878335
4141 1 35.5771755277 18.7987735953 2.13529996544
4508 1 36.9473518128 20.8462307022 1.91099069824
4797 1 41.0326456433 18.7875009028 2.06233196728
4469 1 38.3362364046 18.8042191478 2.12925954256
4836 1 39.7182599249 20.8378009893 1.86896979237
4838 1 39.6866660704 18.6021580634 0.0836826692487
245 1 45.2810806713 20.6971559679 1.95456451842
5125 1 43.7918281372 18.7874613713 2.11037287253
5164 1 42.4252651382 20.8170495331 1.83129624884
5166 1 42.5126228259 18.6194589418 0.0965410937165
246 1 45.2249681088 18.7347652188 0.161986691014
569 1 3.09174047884 23.6281636176 2.6936507105
627 1 1.81989881438 23.8160569345 0.695733757176
198 1 1.58280364545 25.5081035881 2.89272503995
5122 1 0.342378029838 23.4285088942 2.7206500776
530 1 4.40890934271 23.8816152993 0.571297348624
858 1 7.17234737241 23.9187323349 0.531419904206
897 1 5.81784859819 23.7098084105 2.57328925727
1228 1 8.55643779264 21.9466500469 0.258364507303
1186 1 9.96854844066 23.9673388943 0.516971645112
1225 1 8.59914715439 23.741255919 2.54055887147
1556 1 11.3727303766 21.9739868124 0.292409339815
1553 1 11.3933765503 23.7488162853 2.51722785746
1884 1 14.2108163906 21.9807311625 0.31771713878
1514 1 12.8059537653 23.9793643596 0.540518319822
1881 1 14.2136807467 23.7411705481 2.53808165206
2212 1 17.0672785361 21.9882676118 0.312595352704
1842 1 15.625826407 23.983831797 0.553128967763
2170 1 18.3956035069 24.0316814048 0.5845693343
2209 1 16.9845160285 23.7111554111 2.58040182157
2540 1 19.9460048431 22.1186828852 0.290815635362
2495 1 19.6187674673 23.8205443313 2.68027728552
2537 2 21.0171235728 24.2906427385 0.774854604298
2494 1 21.4631709991 22.4504474605 2.19030094585
2531 1 21.5427957048 25.2687875836 3.20341237502
2923 1 23.2061112522 24.7421742322 1.56949905931
2826 1 24.4443270538 22.7423589549 1.8042523139
3192 1 25.8812736885 24.7937923559 1.63615953934
2859 1 24.4229101976 25.1961894855 3.60456421018
3154 1 27.2315997667 22.7716634887 1.8082437654
3478 1 30.0681862528 25.0216888611 3.54067194259
3482 1 30.0584056349 22.8165772657 1.7599595658
3520 1 28.6439447272 24.7981672919 1.56021361252
3150 1 27.2845202428 25.0311947442 3.60217210708
3806 1 32.8698282016 25.0133268748 3.49440778954
3810 1 32.8851600769 22.8455933012 1.71365902457
3848 1 31.4722048885 24.8073253994 1.50560413192
4176 2 34.2322098896 25.0246334206 1.46041190877
4134 1 35.6180148356 25.0227542482 3.48714521359
4138 1 35.5252931303 22.8590114482 1.70504291539
4504 1 36.9657331894 24.8345070328 1.47267760931
4462 1 38.4074440686 25.041230501 3.46078707303
4466 1 38.3499528254 22.8540493033 1.69457940784
4790 1 41.2484852532 25.0686895813 3.38940845188
4794 1 41.1410290202 22.8733803249 1.6263781779
4832 1 39.7900689853 24.8688175825 1.44675615228
5190 1 45.6704477385 22.297268213 0.211318249345
242 1 45.6499295504 25.2216852078 1.06491551242
5160 1 42.6577508504 24.8919109621 1.3919642335
5161 1 43.9252462256 22.8531611284 1.74960961232
5118 1 44.2285261607 25.0766746685 3.16595594294
5158 1 42.4608366713 23.028770851 3.59772069948
568 1 3.04539150591 25.8595678002 0.888159491733
563 1 2.9104631258 27.622294453 2.98776691466
197 1 1.39114849042 27.4975835584 1.02385998173
191 2 1.12825637112 29.2464364092 3.03971527563
526 1 4.41967853146 25.7035820136 2.84117964353
525 1 4.43894101232 27.8618035709 1.10107610753
853 1 7.12657989627 27.9829368127 0.961668702952
854 1 7.22051429986 25.7286191179 2.77976416116
891 1 5.83471553538 27.6954321746 3.03075694114
896 1 5.81075514055 25.9049080889 0.81148838942
1181 1 9.98328742546 27.9743060323 0.957621979734
1182 1 10.004192689 25.7499367243 2.75097067674
1219 1 8.59270895805 27.7489647688 2.96381613679
1224 1 8.55593121988 25.9668545514 0.74864788331
1552 1 11.3973150083 25.9774223977 0.747917579687
1547 1 11.4165631708 27.7602313746 2.96241308118
1509 1 12.8222540696 27.9968957927 0.969910001639
1510 1 12.815043135 25.7556998604 2.75324722537
1875 1 14.2226667205 27.7786418878 2.98237500505
1880 1 14.2264810989 25.995261168 0.763542750905
2166 1 18.2407537595 25.7686364319 2.81766684467
1837 1 15.6506026376 28.0285722572 1.01143790131
1838 1 15.6038261468 25.7607673518 2.7774917053
2165 1 18.425063221 28.0638480836 1.10088729213
2203 1 17.0467290027 27.7932305717 3.05968146807
2208 1 17.0153281839 26.0272565248 0.776861364809
2536 1 19.7282933766 26.1428080242 0.925405719819
2589 1 20.0490496344 27.3142743983 3.12886787863
2814 1 21.1064018026 28.7701447795 1.41747689694
2551 1 21.9986428838 26.7187818749 1.05176490886
2487 1 22.9070058814 27.2336962462 3.35123640694
3186 1 25.9078785337 28.8605583486 1.17942664361
3251 1 24.531492022 26.8076480603 1.40445486103
2488 1 24.6518956547 29.0697081625 3.34061858489
3187 1 25.9312020494 27.0483216326 3.42949511591
2851 2 23.4274152472 28.8967414553 1.50693336608
3149 1 27.2625169865 26.8253928994 1.36772007924
3471 1 30.1085762249 29.039674499 3.095541781
3477 1 30.0484278683 26.8085601754 1.30414375957
3514 1 28.6622813905 28.8402589734 1.13061555205
3515 1 28.6852105232 27.0474739959 3.35279699994
3143 1 27.2928233244 29.0785062673 3.17672864601
3799 1 32.8800582106 29.0347110345 3.04511988426
3805 1 32.8189068026 26.8539695877 1.26192085679
3842 1 31.4432888423 28.8350871266 1.05518115126
3843 1 31.4762273021 27.0175429852 3.29397743685
4170 1 34.2514406793 28.8502050754 1.03327384107
4171 1 34.262043619 27.0271373774 3.26093857538
4127 1 35.6640983703 29.0393696434 3.04813603644
4133 1 35.6654978651 26.8771989246 1.25417982909
4498 1 37.0607763357 28.8668713461 1.04371298701
4499 1 37.0455079679 27.0376082649 3.28211351931
4455 1 38.4750492358 29.0504185438 3.0737454565
4461 1 38.4172446575 26.8562198874 1.2657461056
4789 1 41.2462437378 26.8814742592 1.24266912223
4826 1 39.8542663006 28.8751683056 1.07143765445
4827 1 39.8634400523 27.052731646 3.26114350487
4783 1 41.2920381297 29.0307689555 3.07875666292
289 1 45.3928686387 29.0865572765 0.941062445659
241 1 45.596730164 27.188265499 3.05029566993
240 1 44.1083932652 26.9828996546 1.12729998669
5154 1 42.6485188932 28.9280365609 1.0784884584
5155 1 42.7368151265 27.0477947996 3.18495599934
235 1 44.1049073235 29.0712903335 3.05486122571
293 1 3.10007994747 29.8150056655 1.53000722721
227 1 1.30973233246 31.3528107073 1.21423722907
555 1 3.09496260229 31.9380748229 3.25033959705
518 1 4.19220452181 32.1284064501 1.10303405044
519 2 4.5108939417 29.6473735748 3.32267410713
846 1 7.17568852978 31.9397299973 1.3850526745
847 1 7.1893119867 29.7359795832 3.1766177027
890 1 5.66412862251 30.0081994103 1.17460591828
883 1 5.79948772817 31.7304503529 3.34930735141
1174 1 10.0046352656 31.9867098478 1.39604602039
1175 1 10.0133593079 29.7603377575 3.17553547937
1218 1 8.5710854721 29.9661725075 1.17146398244
1211 1 8.61659527413 31.7504057912 3.39190987894
1539 1 11.4123569245 31.7915024941 3.40617606647
1546 1 11.4090838164 29.9908559855 1.18187250621
1502 1 12.8191088855 32.0180279451 1.41705178927
1503 1 12.8202302848 29.7859357293 3.1878051646
1874 1 14.2393413648 30.0250549108 1.20772757283
1867 1 14.2331833853 31.8027245104 3.41242656539
1830 1 15.6612214577 32.0557411343 1.4360210629
1831 1 15.6577706283 29.7976344893 3.21782181513
2158 1 18.4191533327 32.125946991 1.47671746218
2202 1 17.0404361323 30.0683652487 1.25039936833
2159 1 18.6151765224 29.5944493326 3.21541302577
2195 1 17.1130017088 31.7736757075 3.44451669039
2530 2 19.5413752835 30.2259558764 1.02719438563
2486 1 21.0219218117 31.9732551234 1.45061038518
2523 1 20.0043756903 31.4566088578 3.53810244081
2703 1 22.1291584243 32.7506539983 3.55952244089
2806 1 22.8224577352 30.6834110985 2.93427188693
2815 1 25.8678628222 31.0999874941 3.06369958953
3179 1 24.4400563286 30.8759387815 0.987687508239
3178 1 25.8343225172 32.868209494 0.752532022522
3142 1 27.2447178316 30.8674787212 0.982830491662
3470 1 30.0531709847 30.8478580754 0.857296465701
3507 1 28.7299125035 31.0485509805 2.89137726774
3506 1 28.6435973934 32.8515127947 0.631681033462
3798 1 32.8572344852 30.8443378257 0.819457704718
3835 1 31.5051170702 31.0544247047 2.84691696745
3834 1 31.4721495823 32.8488009523 0.610330901864
4162 1 34.2608404493 32.8570331187 0.59112731365
4163 1 34.2742953635 31.0524955759 2.8159437403
4126 1 35.656299052 30.8553104053 0.803367973543
4491 1 37.0586906319 31.0449902898 2.80777991539
4490 1 37.0586987938 32.8638439985 0.58211899567
4454 1 38.4782035834 30.8724216765 0.820859767462
4782 1 41.24962219 30.8968157534 0.834502692891
4819 1 39.9065094879 31.0451556205 2.84846246747
4818 1 39.8753322078 32.8802401459 0.59766368161
234 1 45.3383412441 31.096616861 2.93041929178
5111 1 44.0253306396 31.001687388 0.858335700227
5147 2 42.659117328 31.0510356303 2.87451751337
226 2 0.828162091246 33.035979577 2.92576315313
82 2 0.743804084698 35.3219035889 0.416579062923
554 2 3.4068291606 34.1835182498 1.70944558536
410 1 2.99651217284 36.1396016991 0.0193018717036
509 1 4.7110531965 36.0017943538 1.84042703883
837 1 7.26351264567 36.0226554941 1.81990740707
882 1 5.91894630831 33.941827416 1.59085603059
510 1 4.61402649186 33.7838161016 3.63190169947
838 1 7.26022528781 33.7426859309 3.62394886157
1165 1 10.0162169094 36.0288240396 1.8574291918
1210 1 8.61911279701 33.9876393212 1.61170457027
1538 1 11.4094573835 34.0214246402 1.63244122461
1166 1 10.0093659161 33.7972260064 3.63724907638
1493 1 12.8063671268 36.052191694 1.86440468245
1866 1 14.2136237339 34.0496555042 1.64867218337
1494 1 12.8117029311 33.8177742532 3.63702557985
1821 1 15.6177928943 36.0907585193 1.84190769958
2149 1 18.3120283665 36.1798796536 1.83256251264
2194 1 17.0243291164 34.0959547312 1.62917332551
2150 1 18.4710015586 33.8130394983 3.60855502886
1822 1 15.6513756273 33.80315042 3.6232860335
2522 2 19.6690199787 34.1757959869 1.47167536296
2378 1 20.0668829748 36.3621645756 0.108589336938
2850 1 23.1705489089 32.9236324293 1.19279101208
2836 1 24.5444184729 33.0310504272 2.94090689611
2798 1 23.0373709591 34.9935270996 2.36101201547
3170 1 25.9070801567 35.0274595008 2.35471233211
2842 1 24.3802864262 34.8097783569 0.359178660645
3462 1 30.1046942663 33.0569871908 2.62269730994
3134 1 27.3241907027 33.0387564304 2.67451701007
3133 1 27.2201511479 34.8532988768 0.345459816163
3461 1 30.0646831885 34.8416432346 0.390364423321
3498 1 28.6727804692 35.0435656118 2.39689030934
3790 1 32.9008663797 33.0695119942 2.6153130769
3789 1 32.8638267698 34.8593524414 0.373194506833
3826 1 31.4928372758 35.0697729622 2.39336665008
4154 1 34.2832415293 35.084650308 2.39314113259
4118 1 35.67669431 33.0665164101 2.60622000493
4117 1 35.6562823817 34.868859444 0.371556064376
4482 1 37.0676260627 35.0725673215 2.38392810519
4774 1 41.2562352807 33.0685632007 2.64327160718
4446 1 38.4589919851 33.0464484238 2.59091559339
4810 1 39.8450679044 35.0605435887 2.38297490568
4445 1 38.4567449742 34.8732190137 0.359289527129
4773 1 41.2452081082 34.8940787057 0.359867474812
5146 1 42.6208530601 32.9495261611 0.613059256764
247 1 45.2705889829 35.0739382994 2.47681570799
190 1 45.4528443593 32.9989960412 0.650342589406
5110 1 43.9673080275 33.0752266116 2.63878207254
5138 1 42.6246619722 35.0640363374 2.40995088553
5101 1 44.041871708 34.9407319504 0.346528772296
78 1 0.623491396765 3.03025401373 4.18861872959
40 2 3.12564749112 3.28592815139 4.28883325666
540 1 3.40549773687 1.06624705619 6.11264068141
174 1 0.744543597856 1.00271895378 6.26447328333
402 1 1.96482881553 3.18095632095 6.26686834346
406 1 1.99478906266 1.12401715578 4.23088219252
407 1 4.55119936606 3.16478667769 6.29497449978
368 1 4.58157176686 1.24141335951 4.07925643578
692 1 7.18493005295 3.14824236618 6.36400368258
696 1 7.27999240623 1.32098166607 4.07755043965
735 1 5.978439875 1.10893578274 6.07082626383
734 1 5.80711162817 3.33089380379 4.27966481616
1020 1 10.0120433419 3.09618501589 6.3664957628
1024 1 10.008979916 1.288326726 4.117481261
1063 1 8.60321425592 1.08794432671 6.1422390404
1062 1 8.61840504053 3.322071885 4.35180085035
1391 1 11.4131137766 1.0779947726 6.11780512638
1390 1 11.4223878083 3.30328561236 4.35358428297
1348 1 12.8340758668 3.09422404533 6.35227851165
1352 1 12.818163569 1.29339032638 4.10393460871
1719 1 14.2250469147 1.07858863196 6.08883612798
1718 1 14.2245982909 3.33464577659 4.33474425837
1676 1 15.6066335547 3.1287682537 6.34506347482
1680 1 15.6250312729 1.33402366138 4.07928718003
2008 1 18.2257380197 1.53945671075 4.09008979292
2047 1 16.9395451616 1.10629973977 6.11695964016
2369 1 18.334172945 3.1075977291 6.25943292897
2046 1 16.9606916891 3.46725925568 4.30563882014
2333 2 21.9663199851 0.975936235088 5.80795108194
2698 1 19.7805949739 1.16284873334 5.99280605604
2697 1 19.8031726776 3.37996068362 4.32585918986
2662 1 22.1622401538 3.03364948114 4.81232891373
2701 1 24.5584597348 2.69904818144 4.05265055733
3033 1 26.0160099692 0.727757252685 4.1805598978
2704 2 24.9532895261 1.09157480918 6.21132590474
3030 1 26.119073841 2.98390584604 5.91781451852
2991 1 27.4263064389 2.7531690764 3.92866388733
2992 1 27.3830219288 0.85335670069 6.18054147509
3319 1 30.005623249 2.7535671644 3.9620237947
3320 1 30.1172702418 0.905427435789 6.19506045092
3358 2 28.7276292033 2.86057527486 6.07748675297
3361 1 28.6965184936 0.684026923678 4.18384617178
3647 1 32.8422307394 2.75561670572 3.97012944566
3648 1 32.8988589176 0.961112581948 6.20782170228
3686 1 31.4385204473 2.95265204846 5.96053538133
3689 1 31.4690461043 0.758391993832 4.18899156657
4014 1 34.2712834286 2.96515383765 5.98435343065
4017 1 34.2874954521 0.751895376315 4.19438580415
3975 1 35.6707704944 2.76828472845 3.97281262983
3976 1 35.6934036122 0.948481413882 6.22389450824
4342 1 37.043679085 2.95157144581 5.98620608388
4345 1 37.0735992164 0.745933565565 4.19444095222
4303 1 38.4425563494 2.7769882395 3.97670795762
4631 1 41.1855945574 2.80986334841 3.94790981428
4304 1 38.4601042032 0.96185443581 6.21254148659
4632 1 41.1904805628 0.943995997484 6.20142160864
4670 1 39.8594393173 2.97613052122 5.97621355366
4673 1 39.8292515602 0.743110235745 4.18100146929
218 1 45.2640892222 0.743372924897 4.19613589093
79 1 45.217644955 2.94533121073 6.18355789628
4959 1 43.9302590996 2.83765939717 3.97860426265
4998 1 42.5572841984 3.02184641456 5.94828299914
5001 1 42.5378792947 0.755838734448 4.17635035107
37 1 43.8087181756 0.900946909979 6.19690247594
401 1 1.37075157216 5.18090331632 5.04026023117
393 1 1.35328502859 7.066507995 7.13377311168
30 2 3.14289194581 5.38866286703 6.63866779022
400 1 2.80139501277 7.21820818853 4.88183718782
363 1 4.34944246394 5.316836209 4.56736834483
691 1 7.18218245405 5.31431337717 4.58829811309
729 1 5.76171066027 5.18103052285 6.61075115759
685 1 7.16983224857 7.13003553927 6.83151978849
357 1 4.33433918285 7.22804982015 6.87485267064
728 1 5.7498388399 7.30174897847 4.81368945868
1019 1 10.026256243 5.30945154632 4.59232791035
1057 1 8.60072312001 5.11571567857 6.60055780129
1013 1 10.0291186737 7.08960534998 6.82056235768