ITEM: TIMESTEP
10000
ITEM: NUMBER OF ATOMS
5248
ITEM: BOX BOUNDS pp pp pp
0.0 45.68
0.0 36.5618393957
0.0 36.5618393957
ITEM: ATOMS id type x y z
409 1 3.00524533421 1.25924114098 2.103953105
39 2 1.88671996332 3.1140349725 2.36691316817
41 1 1.48494275154 2.07916023736 0.0348720436976
697 1 7.23725115266 1.86504107367 0.096113777962
737 1 5.73843058555 1.62012969695 2.05365801005
695 1 7.16075748528 3.58005274562 2.28489984696
367 1 4.29068242464 3.5904445183 2.16733455089
369 1 4.39171203017 1.87876210037 0.00463229320734
1025 1 10.0181131611 1.81512312355 0.140457467803
1065 1 8.59886349272 1.58457821783 2.14078190379
1023 1 10.0029833318 3.5661821012 2.36761216236
1393 1 11.3839836535 1.57070506519 2.15766877978
1353 1 12.7740504122 1.80172434741 0.148983904822
1721 1 14.1165533049 1.56318097023 2.15827751821
1681 1 15.524576273 1.79704817605 0.163699872071
2049 1 16.873396303 1.60983116427 2.17946485941
2009 1 18.3337346535 1.79620803105 0.144547350994
1679 1 15.4652613761 3.56708142061 2.38236058489
2007 1 18.3260939855 3.55137781704 2.38694774764
2377 1 19.5615153525 1.50555037478 2.15395891895
2337 1 21.2819405788 1.76941991053 0.191404005876
2335 1 21.0174848709 3.40612207626 2.37709388296
2477 2 21.684665834 0.873740059888 2.28070674008
2336 1 23.2989321537 2.62583235874 2.07601278401
3032 1 26.0370037767 2.7742248472 1.9673118103
2665 2 24.8550750178 0.90983498767 2.18739555164
3034 1 25.8335165735 0.41254163321 0.142804460832
2706 1 23.1731460446 0.213595138143 0.34619060454
3360 1 28.6861815304 2.34441844995 1.80106339256
3321 1 30.0896863847 0.452945451254 2.0947494514
2993 1 27.3389501502 0.453114027852 2.07939436958
3649 1 32.8236732154 0.483622057486 2.17006024398
3688 1 31.3537149743 2.52194343463 1.90650549221
4016 1 34.198961287 2.47908925251 1.95659187549
3690 1 31.5253866073 0.198434064857 0.143252572679
4018 1 34.2208187168 0.230779911152 0.177455693133
3977 1 35.6209251365 0.461648040962 2.19978889187
4344 1 37.0176705237 2.46365438377 1.97471500653
4346 1 37.0188042561 0.231880448138 0.194788315526
4305 1 38.4269703624 0.450091413259 2.1892571667
4672 1 39.8308290953 2.4380560038 1.96612010622
4633 1 41.2373783557 0.40755533837 2.18228404141
4674 1 39.8502150322 0.222299720019 0.170480562866
82 1 45.6769017783 0.0829487328346 0.22845440279
81 1 45.6248621121 2.01351060388 2.02069646826
5000 1 42.6122309771 2.38237575517 1.93078517429
4961 1 44.004626514 0.359759870507 2.05875533324
5002 1 42.6826770479 0.11385709117 0.10442398604
36 2 3.31229796644 5.87143016484 2.20535021719
77 2 0.150348029978 5.74703028573 3.02173379811
70 1 1.82061568517 7.233313691 3.29213186087
366 1 4.57383818686 5.91586058756 0.354688448767
694 1 7.17965826491 5.83148448638 0.508809235053
733 1 5.77106715951 5.56999609246 2.50905755543
736 1 5.80343024293 3.83851718638 0.211665274403
1022 1 9.99849522584 5.81491064147 0.557986669175
1061 1 8.56321691127 5.5572780086 2.56429188036
1064 1 8.62525120584 3.83810240805 0.312157808409
1392 1 11.3799265267 3.81109540878 0.323072544411
1389 1 11.3591799263 5.57456642721 2.58920176935
1351 2 12.7521244568 3.66490646763 2.27292455418
1350 1 12.7791742944 5.80948295914 0.577902002678
1717 1 14.1442727262 5.58855886585 2.59443528674
1720 1 14.1719213367 3.80906771038 0.329885810004
1678 1 15.5846185339 5.79481010364 0.597557639583
2006 1 18.3671577367 5.68057886585 0.632434386202
2045 1 16.9098522845 5.51809693204 2.63152873528
2048 1 16.937857536 3.76853626095 0.379601200464
2376 1 19.7858586831 3.71093825063 0.369828714721
2373 1 19.7680858231 5.45380364644 2.68534254174
2387 1 21.1557922408 5.69397515103 0.656761590872
2759 1 21.2907402015 7.27722924525 3.03430255315
3029 1 22.4754436648 5.25054111026 2.68523771038
2767 2 22.4634212073 3.84231723925 0.270443176197
2722 2 22.7713438588 7.19793728153 1.19042937129
2663 2 24.6044802834 4.71703323674 2.52651292568
2695 1 24.3528220271 6.9297259925 3.22027662448
3028 1 26.1751679777 6.35771921282 1.5474666995
2986 2 27.5165623655 4.15438117903 1.07727340139
3318 1 29.9073962194 4.53710490008 1.69251739155
3356 2 28.7536165151 6.89967770028 1.51603707349
3023 1 27.3378454629 6.88496761806 3.60051280949
3314 1 30.1040692814 6.79576043003 3.53820403176
3646 1 32.7614546402 4.48691779888 1.70563186567
3684 1 31.4043377046 6.51315481459 1.51077351924
4012 1 34.174590413 6.48603438071 1.48984582526
3642 1 32.8068553188 6.71661146856 3.5031989329
3970 1 35.561771219 6.71989067031 3.49144684144
3974 1 35.5862444246 4.4701741003 1.72281985004
4340 1 36.9930926935 6.46079289329 1.51325705575
4298 1 38.3908336478 6.67977178824 3.51814159199
4302 1 38.4230926126 4.45118464524 1.74850103182
4630 1 41.2153875537 4.42369061496 1.71242621623
4668 1 39.8014234242 6.4456278359 1.52165308827
4626 1 41.1536809599 6.70512362278 3.51773319628
80 2 45.4559199193 3.7326029583 0.0374284619095
4958 1 44.1209646948 4.3029408961 2.06942344921
4996 1 42.5450914686 6.42246958315 1.50343490956
4954 1 43.9255672046 6.87587987024 3.35107291034
38 2 1.02537407057 8.90087767591 1.72933533344
404 1 2.98953515518 7.77714690154 0.727338526801
392 1 2.86533351048 9.48419014125 3.24610944985
362 1 4.44229574372 7.67709936157 2.81627666728
361 1 4.44828584211 9.77538627451 1.28961718643
689 1 7.29729825903 9.83797595022 1.19490001713
690 1 7.15321312583 7.55689142586 2.82132575612
727 1 5.81595331813 9.58233975626 3.20868432074
732 1 5.87063908387 7.88548908386 0.749939759123
1017 1 9.96072909716 9.78595739214 1.02229391574
1018 1 9.97315973436 7.54536841854 2.81553533758
1055 1 8.62473488224 9.52643902158 3.098880535
1060 1 8.59080233463 7.79645035065 0.792289065471
1383 1 11.3617181396 9.54446663588 3.03670202076
1388 1 11.3848018837 7.80794621797 0.811438652308
1345 1 12.7767371349 9.78931512003 1.04260193068
1346 1 12.7391204318 7.55784105904 2.816928894
1711 2 14.1637062502 9.44500651928 2.94786197469
1716 1 14.1836052958 7.78604450249 0.824086508467
2002 1 18.3730220182 7.46381172334 2.94210471506
1673 1 15.6295226163 9.72305311252 1.05009681154
1674 1 15.5913671377 7.539046616 2.82795128696
2039 1 17.0444392507 9.52041204556 3.07927080861
2044 1 17.029007375 7.74148650515 0.86023264513
2001 1 18.4714591635 9.68333513118 1.1007650194
2334 2 19.6293806737 7.52119956255 1.01777328709
2367 1 19.9025656576 9.29933263813 3.14730045976
2372 1 21.4214692186 9.03020829924 1.20047066882
2421 1 22.9288322428 10.8287646801 1.26427653867
2323 1 22.877043278 9.00329463999 3.25093954544
2059 1 24.4176327149 8.72024418347 1.43426786433
2657 1 25.8594129688 8.77479719662 3.27893553491
3022 1 25.8734330964 10.6185650013 1.16084937244
2643 1 24.4006085525 10.8064073522 3.12452784166
2979 1 27.3178868427 10.7090759152 3.05393749054
2985 1 27.1897166413 8.56209036922 1.25103109697
3307 1 30.0791019703 10.7509469836 3.02203198288
3313 1 30.1280819165 8.62546385216 1.24519533498
3350 1 28.6207643407 10.554716795 0.991774053549
3351 1 28.7309915604 8.79054980079 3.25973533727
3635 2 32.8399047282 10.8323863801 2.94040896779
3641 1 32.8032523359 8.50174841473 1.25516627205
3678 1 31.4505743709 10.5474480764 0.989620169392
3679 1 31.5020496113 8.77862002917 3.3023879721
4006 1 34.2256357352 10.4885732596 1.01622735325
4007 1 34.1705526027 8.73194405566 3.28203313606
3963 1 35.5804127967 10.7083606968 3.0504300309
3969 1 35.5792935232 8.4777698842 1.28723659967
4334 1 36.9935900292 10.47807766 1.06175233812
4335 1 36.9786364287 8.69932004649 3.29880147295
4291 1 38.3763430035 10.7122078006 3.08546962761
4297 1 38.383280991 8.46485988439 1.30954385403
4619 1 41.1059978199 10.7575674795 3.14740323618
4625 1 41.1339320666 8.47609168946 1.34677055632
4662 1 39.7616931294 10.4931150314 1.10450702522
4663 1 39.7703741119 8.70240486336 3.33174696386
33 1 45.4126377647 9.01886844765 3.47469054248
71 2 43.6766346175 8.65806176899 1.51470979164
4953 1 42.460610086 10.5544461315 1.11008712727
4991 1 42.4791385748 8.76541511657 3.41648052451
129 1 45.1924842478 10.6592035324 1.28092358686
4946 1 43.8116985858 10.7862317406 3.19554230708
398 1 2.97271596382 11.9167355678 1.44827651216
26 2 2.06621718197 14.2417287213 1.97059763357
128 1 0.765829529037 12.7221513009 0.894292217811
399 1 1.27451494897 11.1782178059 3.15766185057
354 1 4.41065151471 13.9000461465 1.58369273169
355 1 4.33540049869 11.5041019344 3.33854785679
682 1 7.22727149467 13.7854535694 1.46259431133
683 1 7.25950141053 11.5351025145 3.27955919277
726 1 5.77849707048 11.8450678828 1.4193013514
719 1 5.8147817118 13.5287703048 3.48561479034
1010 1 10.0428753046 13.8058446081 1.51917354304
1011 1 9.99916079612 11.5394389609 3.30077427553
1054 1 8.69430916206 11.8261462956 1.31589924438
1047 1 8.59825333235 13.5523953325 3.4935603459
1382 2 11.3803510003 11.7698557864 1.25182120721
1375 1 11.3955140933 13.5075482383 3.52551140028
1338 1 12.7822937183 13.7272594828 1.51877231637
1339 1 12.7753700623 11.4834663952 3.33640295354
1710 1 14.1938313007 11.7396258422 1.3245596812
1703 1 14.1568416748 13.4363100891 3.515543593
1666 1 15.5802117471 13.7535096952 1.52649797432
1667 1 15.5511553175 11.4436043992 3.33152975277
1994 2 18.1023890851 13.5432745822 1.6362905634
1995 1 16.8586967975 11.6739888064 1.32949952578
2366 1 18.5144642975 11.4437781497 3.19394236567
2031 1 16.984141329 13.4265545952 3.55834938312
2329 2 20.261569432 11.0077482931 1.32845394808
2688 1 21.5035536084 11.0122036351 3.27950745917
2687 1 21.3601295643 12.5865093145 0.248697235075
2359 1 20.2186936558 13.2419742857 2.66486370434
2381 1 22.3057471609 14.5164505151 1.31885149937
2694 1 23.0143233943 12.7865141246 2.79025591183
2642 1 25.9187201381 12.6778039176 2.68335182206
3014 1 25.8699214495 14.4802292485 0.443567358109
2382 1 24.3152501881 12.6947195138 0.751736295741
2978 1 27.199649342 12.515405623 0.669831751861
3306 1 30.0162838284 12.5122319403 0.766782560603
3343 1 28.6188813931 12.7236415154 2.78586802563
3342 1 28.6120304303 14.4890976971 0.504575459162
3634 1 32.8447216983 12.5180843005 0.796055327574
3670 1 31.4290484058 14.4913919899 0.564412993089
3671 1 31.4258796222 12.751744143 2.79929734549
3998 1 34.2463863488 14.5050490016 0.596075789141
3999 1 34.2539999575 12.7584193729 2.81566654225
3962 1 35.6229991641 12.4941424851 0.80925842148
4326 1 37.0059729039 14.5110370859 0.588521227176
4327 1 36.9767522169 12.6976311108 2.84131617108
4290 1 38.3809959529 12.4961968693 0.837641954224
4618 1 41.1348245634 12.5270379515 0.813065444548
4654 1 39.7656871325 14.5277352498 0.583114435727
4655 1 39.7647292863 12.7262050289 2.85771419239
4282 2 38.3820248582 14.6238945952 2.54425061147
63 2 45.036175589 12.6781174091 2.91605748058
4938 1 42.4511129316 12.7595614016 2.8404521929
4990 1 43.8286125589 12.5377075193 0.783543021698
4982 1 42.486355615 14.5432447564 0.553071214793
125 2 45.0409471467 14.5244572237 0.280086562178
390 1 3.196948436 16.1258456039 1.65014169253
17 1 1.24571019476 18.1555926013 1.87944520593
382 1 3.19267145467 17.7193124437 3.49909708756
18 1 1.33279332177 16.1095265887 3.61871394446
345 1 4.76791998803 17.9261657517 1.78100405638
673 1 7.33927751227 17.8577935238 1.79350307764
718 1 5.95131892073 15.8192097395 1.51947273862
346 1 4.79746059688 15.7889601734 3.46099243224
1001 1 10.0427812134 17.8051911249 1.93237094201
1046 1 8.63437634912 15.7949264893 1.69124380646
1374 1 11.4302841808 15.7786184639 1.73409641459
1329 1 12.8087033754 17.7918269475 1.95067611079
1702 1 14.1448162932 15.7283827122 1.71503568701
1657 1 15.4798214323 17.7268925327 1.86276335758
2030 1 17.0302570758 15.7613526898 1.71279058704
1985 1 18.8885664516 17.3298046854 2.08527944808
1986 1 18.551929612 15.3033764573 3.53636310793
2214 1 17.0208850528 18.0931940369 0.0306509782383
2869 2 20.8394348005 15.8706932347 2.61188040801
2358 1 19.6892215018 14.7915971311 0.798717111992
2870 1 21.3254114343 16.5683709157 0.218105393201
2313 1 21.3683929617 18.2794860248 1.97606884388
2866 1 24.5533315692 14.637046268 2.42097601555
2678 1 23.1369815623 16.5498384196 2.12080817313
3006 1 25.8270973383 16.6783440814 2.24304613903
2641 1 24.3163609412 16.3196992026 0.183749074297
2970 1 27.2509656062 14.7224305207 2.51518688624
3298 1 30.0277658222 14.7025605245 2.56990702231
3297 1 30.0384684314 16.4787758367 0.329377069732
3334 1 28.6703730824 16.6834232224 2.31926999623
2969 1 27.2204291549 16.4832973107 0.283914652347
3626 1 32.8372470886 14.7301980288 2.59179103746
3625 1 32.8398013274 16.4907334267 0.377621498251
3662 1 31.4290133036 16.7093750663 2.3775434092
3990 1 34.2549418903 16.726755152 2.40133049086
3954 1 35.663169036 14.7497966432 2.61112715256
3953 1 35.6526379465 16.5110091198 0.41479769204
4318 1 37.0841451756 16.7424088759 2.43666227723
4610 1 41.1002770006 14.7682909843 2.60183725506
4646 1 39.6996784932 16.7576656287 2.44200736412
4609 1 41.1299045712 16.5445628695 0.430728977851
4281 1 38.3940825901 16.5211558091 0.384007621754
27 1 43.8396351912 14.7029734137 2.50760786387
62 2 45.1681904519 16.6605053604 2.5506012501
4974 1 42.5305871248 16.7317697572 2.39046647752
4937 1 43.9063753554 16.5325468265 0.370145046403
573 1 3.12943158598 19.7554995339 1.92083254318
244 1 1.89783517175 21.7806658675 2.14519781467
205 1 1.4286290246 20.2295238069 0.0722648256481
861 1 7.28299213349 20.1062039623 0.0337560799699
901 1 5.95817347002 19.9292978025 2.03220777372
859 1 7.27633349316 21.8922374867 2.32301478096
531 1 4.4506297738 21.8375784557 2.24757670668
1189 1 10.1002895795 20.065668767 0.146728300205
1229 1 8.67924215083 19.8550860671 2.10583761756
1187 1 10.0658647531 21.8359614137 2.36670652857
1557 1 11.4270681349 19.8083084621 2.13648535068
1517 1 12.8241537702 20.0638542389 0.135563726182
1885 1 14.2476018695 19.7874853423 2.10964866369
1515 1 12.834576879 21.8055254445 2.37016736259
2213 1 17.0737726505 19.6223682184 2.05461497947
1845 1 15.5876915824 20.0304193188 0.095469539601
1843 1 15.6192305502 21.7357745256 2.40251858825
2171 2 17.970808673 21.8482282452 2.44777370195
2828 2 20.7188052119 20.3087968194 1.62336280852
2539 1 19.6947735992 20.3470175695 3.54327815609
3198 1 25.7514262149 18.4029356125 0.105604700924
2868 1 23.2156135897 20.6234690846 1.8450348392
3196 1 25.8222410322 20.6542147431 1.97076713551
2500 1 24.2839655089 18.6004449412 2.12792038079
2829 1 22.9903028664 18.3036586108 0.033732567813
3526 1 28.6539944327 18.4796708602 0.119593887627
3157 1 27.275501403 18.6751892053 2.04814024931
3485 1 30.0455166751 18.7132628176 2.1634041262
3524 1 28.6498686082 20.714364117 1.96437262054
3854 1 31.4463079405 18.4808190727 0.159312875903
3813 1 32.8249559035 18.6922147663 2.1854696848
3852 1 31.4805824309 20.722814805 1.98403197603
4180 2 34.2303923981 20.6072123784 1.9107882052
4182 1 34.241440825 18.4954151229 0.185233602616
4510 1 37.0012338425 18.5096266593 0.16146106348
4141 1 35.6763206618 18.7002535324 2.1967682009
4508 1 36.9498306398 20.7912889416 1.97439021798
4797 1 41.1742151213 18.7124919405 2.18894580223
4469 2 38.3924884149 18.8449866345 2.0908788955
4836 1 39.8233124784 20.7420867812 1.97071053279
4838 1 39.7918091972 18.5157565939 0.161774017053
245 1 45.5303730541 20.5108223545 1.97410646762
246 2 45.2564040413 18.6194411512 0.0581888220002
5125 1 43.9979520681 18.6859924281 2.17773040059
5164 1 42.6146113585 20.688304816 1.94380658647
5166 1 42.6091495729 18.521732026 0.150779947607
569 1 3.08328684962 23.8462222808 2.5479378525
627 1 1.73615318411 23.9228004776 0.536470493956
5122 1 0.339936353534 23.4315668986 2.65330100365
572 1 2.99716116521 22.071274853 0.0960095140298
198 1 1.45101706184 25.5850582556 2.96844337981
530 1 4.44292980713 24.0284576099 0.49588664887
858 1 7.286982275 24.0629272836 0.612322135313
897 1 5.79825720796 23.859610765 2.57084900488
900 1 5.88497016104 22.1101588142 0.247113637844
1228 1 8.70371066682 22.0753758169 0.350376582357
1186 1 10.0389629398 24.0987676844 0.576681221276
1225 1 8.66793900865 23.8541708119 2.6053774011
1556 1 11.4398143792 22.0829709784 0.350449451158
1553 1 11.439826706 23.8297153168 2.5902247668
1514 1 12.8160087895 24.0580455757 0.585054108954
1881 1 14.2323325637 23.7861300284 2.60653055481
1884 1 14.2383466314 22.0497948461 0.375614409996
2212 1 16.9695601885 22.0159927481 0.342571086194
1842 1 15.5828300975 24.0362162469 0.590797309006
2170 1 18.1631942188 24.0146693246 0.673518023625
2209 1 16.8401847848 23.8362350018 2.69725122843
2494 1 21.5451275737 22.188070924 2.30960968855
2495 2 20.242013263 23.697998413 1.30280042544
2923 1 22.4779295214 24.3128011724 2.07193484743
2826 1 24.4660913473 22.6728591761 1.84099578507
3192 2 26.0005102461 24.7657047937 1.08684297403
2860 2 24.3021811998 24.1233577737 3.55200086929
3154 1 27.2350042 22.6811704666 1.81117619325
3478 1 30.0141213555 24.9075759556 3.56189728551
3482 1 30.0770904029 22.7106302367 1.76697103218
3520 1 28.5755811954 24.7437121206 1.56291925922
3806 1 32.8233819069 24.9451429166 3.55965411533
3810 1 32.8824556511 22.7202683836 1.82590346622
3848 1 31.4396116096 24.7215709683 1.57809492908
4176 2 34.0791203144 24.8318541791 1.4547014748
4134 1 35.604272335 24.9420226092 3.48137459837
4138 1 35.5458151212 22.7838306545 1.80162119304
4504 2 37.1663434585 24.7389644225 1.54735768827
4462 1 38.4370672627 24.9535396849 3.56650070628
4466 1 38.4058676059 22.7132984063 1.76873888444
4790 1 41.22456973 24.9945017294 3.52964253591
4794 1 41.197752127 22.7118001351 1.73539202864
4832 1 39.8076547367 24.7190254072 1.55049207119
5190 1 45.6576812544 22.3717344231 0.063820598608
242 1 45.4228385222 25.076940814 1.15862036334
5160 1 42.5635772881 24.7546084614 1.55778062868
5161 1 43.9361172274 22.7473099987 1.6867120453
5118 1 44.1571947689 24.9712730567 3.36739403055
568 1 3.12776282119 26.061973868 0.820566077729
563 1 2.71499115101 27.7335972405 3.25861957398
197 1 1.22459236547 27.5271884998 1.27098206161
526 1 4.33216931711 25.8643626173 2.86364086309
525 1 4.13619856768 28.2543765749 1.47428232703
853 1 7.07983558223 28.1053510893 1.01921138646
854 1 7.21233914607 25.823458641 2.82544468384
891 1 5.81171185375 27.7720436066 3.0932435172
896 1 5.77740550966 26.085642063 0.858082122838
1181 1 9.99502577638 28.0862032536 1.01986302621
1182 1 10.035494166 25.8537576254 2.80211830814
1219 1 8.58309804069 27.8387744409 3.02064248935
1224 1 8.59126916153 26.1083726105 0.818767115361
1547 1 11.41773669 27.8517351202 3.00855232371
1552 1 11.4364706767 26.0931866379 0.796739400872
1509 1 12.8230703835 28.0810646439 1.00409590136
1510 1 12.803120885 25.8321610255 2.81941339749
1875 1 14.1748953548 27.8680368225 3.01608950266
1880 2 14.1963062826 25.9804090073 0.8811689226
2166 2 18.1463065614 25.9679294735 2.75704899203
1837 1 15.5676457074 28.0971957122 1.00800381914
1838 1 15.5246755842 25.8498322064 2.82913423572
2165 1 18.3359469065 27.9628825089 1.0230070492
2203 1 16.8799606853 27.8529290601 3.07476070365
2208 1 16.9161946436 26.0624642117 0.809262473736
2531 2 21.3558547382 26.3995991031 2.9149746423
2589 1 19.7139286156 27.9059236029 3.09817260058
2536 1 19.8724866645 25.8936420174 1.0558431546
2487 1 22.5381340785 28.3301590876 2.7443416813
2814 1 20.9690787529 28.1591895318 0.884399969065
2551 1 22.5665485869 26.4418307942 1.05676650043
2859 1 23.6293306636 26.314447686 3.46326129126
2851 1 23.5341859048 28.8150282407 0.580141542472
3186 2 26.0806273318 29.0718093754 0.993307599357
3251 1 24.8111127138 26.9149597842 1.38098630767
2488 1 24.7378458841 28.9912903553 3.05171072972
3187 2 25.9696172991 27.1780628176 3.56097495839
3143 1 27.3401277838 29.0429525898 3.11826229393
3149 1 27.2140590483 26.8667694772 1.15319081616
3471 1 29.9560858747 28.9304095462 3.06613135455
3477 1 29.9841112688 26.7183594202 1.34736273013
3514 1 28.6279082401 28.7545403707 1.01203667451
3515 1 28.4811267037 26.8917787073 3.33130801457
3799 1 32.8225108296 28.9492423404 3.07884353639
3805 1 32.805375595 26.7691426553 1.33506177153
3842 1 31.4180741528 28.7561185075 1.10030808963
3843 1 31.3917385622 26.9388065213 3.32353609304
4171 1 34.2293600338 26.9365329469 3.30696030953
4170 1 34.2470735565 28.729844995 1.08339255821
4127 1 35.630189928 28.9515482578 3.09614383964
4133 1 35.6446853493 26.7193009273 1.33132120719
4498 1 37.0340531071 28.730107006 1.11645366236
4499 1 37.0265767742 26.9413263515 3.33441952647
4455 1 38.4335843628 28.9736325056 3.15697315198
4461 1 38.4398711172 26.7505235967 1.35049290939
4789 1 41.1656215465 26.7428144096 1.39486493512
4826 1 39.780455393 28.7582375614 1.16503056333
4827 1 39.8331676494 26.9838577635 3.38866293367
4783 1 41.2324107084 28.9833793721 3.23567903337
241 1 45.4437115663 27.2101070481 3.23808296709
240 1 43.8639877262 26.8146366241 1.36994745781
5154 1 42.435770859 28.7873003547 1.22484936579
5155 1 42.6759886988 27.0275340812 3.40789485577
289 2 44.9959273522 28.7059422986 0.88819516349
235 1 44.1321060955 29.2118867154 3.18384860652
227 1 2.02294497249 32.1454627694 1.07555667332
234 1 0.393110687657 31.6229422507 2.83931576869
293 2 2.05614952295 29.9125997152 1.8868498332
555 1 2.99050380211 31.5717640902 3.40876101853
518 2 4.5537297205 32.2086554412 1.65798374069
519 2 4.59828569529 29.6553236685 3.56681107828
846 1 7.17793007606 32.0888869471 1.50861042845
847 1 7.1793510659 29.8147700653 3.28681567904
890 1 5.7384231106 30.1100536992 1.27218123882
883 1 5.82780935874 31.8062279286 3.55914293675
1174 1 9.9695151457 32.0824604739 1.49051709642
1175 1 9.9881386827 29.8396531637 3.26696821611
1218 1 8.55617082095 30.0724234517 1.27375196022
1211 1 8.57052806493 31.8347009667 3.5053977461
1539 1 11.3664840846 31.8555834444 3.495194712
1546 1 11.3946681021 30.0735676134 1.25228219215
1502 1 12.7835191603 32.0870315169 1.49895436443
1503 1 12.7802086747 29.8611175478 3.25420738304
1874 1 14.1914788815 30.0878377902 1.26042360235
1867 1 14.1815592504 31.8633914304 3.51879151041
1830 1 15.6082758475 32.0754069265 1.51654907994
1831 1 15.5852858355 29.8725803743 3.28128587699
2158 1 18.4981722119 32.1409265156 1.55164675035
2202 1 16.9925014915 30.0725247488 1.28793720261
2159 1 18.2615946278 29.8118982301 3.39934239521
2195 1 16.978454854 31.8788362689 3.55605036653
2530 2 19.4621706158 29.8684128937 1.44066971769
2486 2 20.9732185166 32.7030188007 1.07560016477
2858 1 21.7031310258 30.5362831452 0.758993274647
2843 1 20.981201502 30.0155694248 3.30543724977
2815 1 26.0514742769 31.0398858066 2.77705653828
2806 1 23.2611165951 30.6391049324 2.58326490446
3178 1 26.0696797423 32.8182141359 0.445598373706
2836 1 24.4887763725 32.7802341417 2.33312325611
3179 1 24.6631202824 30.972672821 0.799269629191
2850 1 23.1299796933 32.8310970269 0.297325657633
3142 1 27.4517226946 30.8349638553 0.665262126848
3470 1 29.9960766266 30.7442857344 0.751374139876
3507 1 28.6922466003 31.0214214905 2.84038871169
3798 1 32.8327576529 30.7350417485 0.822508639766
3834 1 31.4413089144 32.7365971059 0.578499330486
3835 1 31.4087979151 30.9458365463 2.80708632013
4163 1 34.2335585241 30.9670953576 2.85272934773
4162 1 34.2500320817 32.7438450763 0.622260262343
4126 1 35.6487944505 30.7460923412 0.851119983079
4490 1 37.0380069019 32.7755578675 0.639861728804
4491 1 37.0203858721 30.9805272687 2.87225317603
4454 1 38.4004516968 30.7588994167 0.88880247633
4782 1 41.09055084 30.7844666013 0.890804596367
4819 1 39.7944482327 30.9776315784 2.90849366369
4818 2 39.7819066138 32.7998611669 0.647641426593
190 1 45.3604642798 32.4030561705 0.34293770414
5111 1 43.8857313845 30.7515424384 1.01195950901
5147 2 42.461940763 30.966156916 2.78250074956
5146 1 42.5203428587 32.7625383042 0.667667330457
5110 1 44.0056160032 32.8607387953 2.58087526445
181 1 1.16516665537 36.1376395031 2.36238557204
554 1 3.02135751337 34.2569319266 1.53969642758
5102 1 0.408719987824 33.9535210261 1.79824426236
226 1 1.80795936405 33.697127563 3.5583011952
509 1 4.50877997653 36.0959968806 1.80648604453
837 1 7.19507252865 36.1502823786 1.91062405205
882 1 5.82587329964 34.124441874 1.65897922886
510 1 4.36352819607 33.7409077765 3.64734936909
1165 1 9.98457574746 36.1256368427 1.93455340527
1210 1 8.57526189995 34.1095378484 1.71221706034
1538 1 11.3713380363 34.0976173686 1.72234523235
1493 1 12.7610905319 36.105882316 1.94960086299
1866 1 14.1785619349 34.0905530616 1.72966883678
1821 1 15.5332998102 36.1137642181 1.94127616103
2149 1 18.1090967628 36.174624633 1.92125743911
2194 1 16.9814935611 34.0628691782 1.72999834087
2522 1 19.6307728287 34.4194958218 1.58643754395
2842 2 23.3578228767 34.7217547065 1.51599133233
3170 1 25.6916437103 35.070347509 2.18663052338
3506 2 28.7514727191 32.9351611332 0.626620232925
3462 1 30.1011480542 32.9997447714 2.61752733838
3134 1 27.3596587062 33.0684480905 2.45661325043
3133 1 27.2282134086 34.9258267805 0.356569872625
3461 1 30.1415980422 34.8039071225 0.303021593986
3498 1 28.7712375988 35.0333824626 2.23483952448
3790 1 32.8346340575 32.9705524244 2.61333937542
3789 1 32.8616298611 34.7422480705 0.377631921577
3826 1 31.4754732772 35.0075221069 2.37874225892
4154 1 34.2248356468 35.0074611292 2.40983279148
4118 1 35.6360320474 32.9944799623 2.64277652674
4117 1 35.6244668052 34.7773627608 0.418890325785
4482 1 37.0345919001 35.0073783178 2.4196948652
4774 1 41.2078877382 33.003490097 2.71276582444
4446 1 38.4195929255 32.9922013452 2.66730138067
4810 1 39.8002678288 34.9860399115 2.39292424887
4445 1 38.4158607418 34.8019438215 0.397718669751
4773 1 41.2086994551 34.7736745121 0.394819402579
5138 1 42.5594818262 34.9377002487 2.38366240869
5101 1 44.1196154964 34.6610357353 0.46719533669
5094 1 44.8234416144 35.0449918614 3.32484353458
40 1 3.03597620917 3.33241966392 4.37488826727
540 1 3.12847291325 0.98076530074 6.04447605598
174 2 0.728614497758 0.988948358452 6.13544140408
402 1 1.71973293797 3.09044367949 6.39508935668
406 1 1.73132790892 1.35469950038 4.10087245687
78 1 0.37283737446 3.59534848736 3.88653990195
407 1 4.44916156418 3.05774374746 6.28952284896
368 1 4.45271296756 1.29863356428 4.09314549195
692 1 7.07693882208 3.07678761112 6.34004084358
696 1 7.14011901329 1.32692762505 4.09924414688
735 1 5.7815643234 0.994977843462 6.09976989364
734 1 5.69469033503 3.37666409237 4.23669668812
1020 1 9.96298095836 3.07709316125 6.36195117699
1024 1 9.99780686145 1.33284990037 4.17354235938
1063 1 8.53062760588 1.08482756685 6.14872231062
1062 1 8.54817198603 3.31913193271 4.34890961522
1390 1 11.4013845647 3.29775920643 4.36327449599
1391 1 11.3912588207 1.12331370449 6.18719212632
1348 2 12.7204523869 3.29677861173 6.41905402641
1352 2 12.7396405637 1.13012277535 4.14205816001
1719 1 14.0720463333 1.13807205013 6.20151536663
1718 1 14.0528459476 3.3157273528 4.36544152757
1676 1 15.4417961497 3.13781061417 6.36498155631
1680 1 15.4491119429 1.35052930064 4.17737350407
2008 1 18.259014395 1.44254338713 4.23498003149
2047 1 16.8339105615 1.15250735213 6.15212005862
2369 1 18.2564370055 3.15697344629 6.34548543599
2046 1 16.8489739587 3.38645739592 4.37547928964
2333 1 20.8587533854 1.46784527126 4.30444653921
2698 1 19.759125434 1.18752090285 6.39599253042
2697 1 19.6919779708 3.42863856107 4.43795015633
2325 1 21.2622632094 3.35205780191 6.54382421807
2374 1 22.2768738208 1.24672481972 6.20924324891
2662 2 22.350917542 3.2147751822 4.36119688707
2701 1 24.7659981336 2.73250204246 4.09711810966
3033 1 26.0941080061 0.740701975962 4.08261579994
3030 1 25.4135985452 3.41249734673 6.31704921497
2704 1 24.7245008699 0.949635504158 6.17633528584
2705 1 23.2947503737 0.78204694565 4.07456916616
2991 1 27.3362662361 2.77231059322 4.26862233301
2992 1 27.1657746714 1.34672831899 6.31932694038
3319 1 29.9845072988 2.75586670629 3.89949437932
3320 1 30.067555511 0.838966746785 6.19615402844
3358 2 28.9010189059 2.7269447161 6.07520735864
3361 1 28.6918388393 0.729124116175 4.13367381803
3647 1 32.7789374518 2.71115413106 3.937114005
3648 1 32.8141462409 0.909092758688 6.18413244068
3686 1 31.4350522839 2.91294247586 5.95355325039
3689 1 31.419060161 0.699348815863 4.14994090553
4017 1 34.2193313254 0.699018595578 4.19478088722
4014 1 34.1955916934 2.91788832784 5.94101456614
3975 1 35.6194091654 2.69194510429 3.98953186244
3976 1 35.640876412 0.95163909727 6.20355615421
4342 1 37.0413476539 2.94500273556 6.02918651152
4345 1 37.0419219764 0.701432019149 4.21879596515
4631 1 41.2183020377 2.60220925673 3.9715774863
4303 1 38.4102381712 2.71345048803 4.0019819978
4304 1 38.4514651238 0.976387206352 6.22768804902
4632 1 41.2293986931 0.978441269433 6.1707196494
4670 1 39.8180806876 3.00994522909 5.96621672632
4673 1 39.8046147294 0.697992791988 4.20241593429
218 1 45.2153653468 0.72845645573 4.15920369855
79 1 45.0927181991 3.06109515897 5.94372999651
4959 1 43.8513565124 2.62992890924 3.88633351017
4998 1 42.6387246212 2.97220064138 5.94077500708
5001 1 42.7131971211 0.483844052254 4.19563979629
37 1 43.9136595953 0.901207325832 6.28495521611
401 1 1.28977301802 5.32964683685 5.19576440307
30 2 3.14385579421 5.12877831584 6.39620636201
393 1 1.35401909275 7.09753596444 7.26403083407
363 1 4.18785533389 5.4546524037 4.4170418174
691 1 7.10461146172 5.31556186249 4.57319900056
729 1 5.6887617948 5.11329608097 6.58557755897
685 1 7.1102912512 7.06525339928 6.88465158007
357 1 4.28203487073 7.10341149492 7.06824334203
728 1 5.73170898268 7.30297540934 4.87277880018
1019 1 9.9679873903 5.29570174184 4.58270050574
1057 1 8.5164233535 5.06457855974 6.59716078603
1013 1 9.94609476657 7.07852257999 6.84249617551
1385 1 11.316452421 5.11786489322 6.6029216109
1056 1 8.56331168403 7.27124877396 4.83825947416
1347 1 12.7356789787 5.35317668377 4.59648589049
1713 1 14.1205538368 5.16144544672 6.59867060305
1341 1 12.7356645998 7.14499835392 6.81545662956
1675 1 15.4732597211 5.35784698829 4.60117817271
2041 1 16.880747013 5.15922579507 6.59806026423
2003 1 18.3235912807 5.37392941287 4.63677447106
1669 1 15.5220174965 7.156329967 6.82105326134
2361 1 18.3596170641 7.15422285195 6.79418736008
2330 1 21.2799371432 5.26537168756 4.79465313504
1997 1 19.7007724138 5.16052715016 6.62797946808
2368 1 21.432191655 6.94275478751 7.00262971639
2331 1 22.8009166029 7.13544231645 5.07724929055