ITEM: TIMESTEP
8000
ITEM: NUMBER OF ATOMS
5248
ITEM: BOX BOUNDS pp pp pp
0.0 45.68
0.0 36.5618393957
0.0 36.5618393957
ITEM: ATOMS id type x y z
409 1 3.24454227401 1.45052024454 2.01460980249
39 2 1.95816538871 3.19399486814 2.09385099476
41 1 1.48003653565 1.87917663591 0.0488576633814
697 1 7.2183864284 1.78472087142 0.150409512407
737 1 5.81052224977 1.59107539195 2.14847817929
695 1 7.19426316047 3.57917758885 2.38492532783
367 1 4.45103345541 3.64294785318 2.31431084957
369 1 4.53448762393 1.73176178923 0.0202059320904
1025 1 10.0143778059 1.7715061502 0.16919440787
1065 1 8.60084036404 1.55691214507 2.18107581428
1023 1 10.0050507214 3.55617779741 2.40706658783
1393 1 11.386785904 1.55866333501 2.19669070562
1353 1 12.7559665805 1.78289888829 0.167925737653
1721 1 14.0895084275 1.56480749248 2.19462523448
1681 1 15.542519117 1.77019744299 0.212738745427
2049 1 16.903046023 1.57743725721 2.21435521561
2009 1 18.365884267 1.73626990888 0.195206340511
1679 1 15.4864735206 3.54300581001 2.42365070347
2007 1 18.3527633249 3.50728571674 2.45984924816
2377 1 19.7506045208 1.49860883114 2.15302101704
2337 1 21.273733216 1.75809447931 0.246191346576
2335 1 21.0103111218 3.50905170202 2.4343858382
2336 1 22.8311964444 1.9861512925 2.07360306707
3032 1 25.9415959766 2.36094008749 1.74538733866
2665 2 24.637726668 0.588361335345 2.05708793974
3360 1 28.6245463235 2.28624481681 1.65403981669
3321 1 30.0667244055 0.434558746175 1.99890755754
2993 1 27.2404038732 0.324083125458 1.96680722621
3649 1 32.8023641439 0.485431192066 2.08511026091
3688 1 31.3395683819 2.51696692684 1.80618899959
4016 1 34.198948819 2.4831380953 1.87569212742
4018 1 34.2290787898 0.229538462103 0.0852336419213
3690 1 31.4924359163 0.223293370212 0.0530838698573
3977 1 35.6133485284 0.473633594058 2.10875347604
4344 1 37.02964796 2.46675711184 1.8987829865
4346 1 37.0377631616 0.239068833904 0.112258745595
4305 1 38.4436702176 0.454385459188 2.11694879171
4672 1 39.8631853752 2.44065379072 1.90032719692
4633 1 41.2810636039 0.376963677991 2.13748792277
4674 1 39.8805342639 0.226431416208 0.10931356743
81 1 45.5837941896 2.05254910449 1.93962243543
5000 1 42.6670669836 2.32763000441 1.89773034318
4961 1 44.1891584789 0.215637747705 1.99752081179
5002 1 42.6905173726 0.112308032076 0.080042351027
408 1 3.21686483703 3.6854638767 0.11253545031
36 2 3.28654973292 5.8485580036 3.01185326203
77 2 0.135113370986 5.69451278731 2.95644031498
35 2 1.95756795817 5.73012482865 0.135763509828
366 1 4.44509605329 5.79756535548 0.631210851332
694 1 7.21688276922 5.79166836401 0.611170356963
733 1 5.8371342647 5.63277255898 2.6521797706
736 1 5.81469390982 3.80577543696 0.328933518624
1022 1 9.98601770512 5.78598678705 0.622695281421
1061 1 8.57937928218 5.55153759204 2.65482272494
1064 1 8.61271229319 3.78179131562 0.376612777341
1392 1 11.368587016 3.78497900879 0.36110979006
1389 1 11.3703820986 5.57706486034 2.63829634508
1351 2 12.7509183132 3.66132575258 2.31744396659
1350 1 12.7736692587 5.79855269796 0.628843632315
1717 1 14.1523166742 5.5806387433 2.64220781345
1720 1 14.1703898643 3.78497103467 0.379471657835
1678 1 15.5788338355 5.77399028955 0.653345636565
2006 1 18.3919202038 5.7048140059 0.698879445432
2045 1 16.9276223475 5.4769722766 2.6907621264
2048 1 16.9674940262 3.75612872789 0.447154604398
2376 1 19.7566291128 3.70631894974 0.420090256852
2373 1 19.7095004425 5.46830008152 2.80370614626
2387 1 21.1367806975 5.58289727844 0.928327189015
2767 1 22.550223482 3.81290932323 0.482472214525
2759 1 21.5992943516 6.98382435976 3.12784838832
3029 1 22.9964765963 4.81994680941 3.04138349933
2663 1 24.6548368411 4.29098439733 1.43247248758
2695 1 24.4685547659 6.68966723581 3.32975265683
2722 2 23.3316810121 6.20822130059 1.22765818389
3028 1 25.9372124104 6.40631364554 1.36992115904
2702 1 25.9426756545 4.72041284459 3.53819335143
2986 2 27.1660763954 4.14154250044 1.24248855122
3318 1 29.7925158854 4.50657446031 1.61074209214
3356 2 28.6387495291 6.83884277887 1.47537616728
3023 1 27.1711936739 6.83779028967 3.53158692602
3314 1 30.0110024732 6.78545959916 3.48795397112
3646 1 32.7600981334 4.49036155513 1.67082005681
3684 1 31.3271252869 6.47902194657 1.46113396875
4012 1 34.1808859504 6.48006921585 1.46825627707
3642 1 32.7774090081 6.70969132302 3.4557821583
3685 1 31.3289372714 4.74130907852 3.62852799172
3970 1 35.5769089443 6.71134197485 3.47531231052
3974 1 35.6064147316 4.47394974897 1.68388656606
4340 1 36.9989320274 6.47446543133 1.47900668836
4298 1 38.3904465948 6.71281398121 3.4830606044
4302 1 38.4322219772 4.46473600562 1.70708058521
4630 1 41.2712493678 4.44110867365 1.71830528022
4668 1 39.8235050988 6.47995284981 1.51590798385
4626 1 41.211812877 6.77785608003 3.48836341507
4958 1 44.1037911747 4.30964378066 2.08730057786
4996 1 42.5899777227 6.49122871869 1.50651315227
4954 1 44.0602166555 6.98769507921 3.33139008486
70 1 1.48172914388 7.47705818709 3.30110751846
38 2 0.958473704798 8.53189375856 1.31126969083
404 1 3.09683489834 7.71073266119 0.977139825258
392 1 2.79041225383 9.53701405189 3.20517619818
362 1 4.43779319096 7.71981063607 2.97196212012
361 1 4.46247328579 9.77350655346 1.37342826478
689 1 7.32238781809 9.79879314932 1.29107752176
690 1 7.22568421969 7.61053077536 2.93181185605
727 1 5.82101413408 9.61373169204 3.29992901904
732 1 5.86460089227 7.80027923922 0.925921654286
1017 1 9.94655213852 9.79224322448 1.07153348906
1018 1 9.93793764743 7.51698726664 2.88650582754
1055 1 8.6598356985 9.6064328256 3.19017342213
1060 1 8.59600385336 7.77066753102 0.848964322795
1383 2 11.2237727809 9.36454807038 3.08006596402
1388 1 11.3744261118 7.79734538 0.883094405508
1345 1 12.7533118805 9.7878508413 1.13783351919
1346 1 12.7812033185 7.57084116208 2.86911212315
1711 2 14.345350428 9.45318000049 2.97286172169
1716 1 14.1800450661 7.79342722195 0.870691702657
2002 1 18.2769955964 7.48855532242 2.9630270466
1673 1 15.6476281266 9.74535158195 1.05385478269
1674 1 15.609512537 7.50046203183 2.86842427142
2039 1 17.0119743023 9.49856263606 3.1234906903
2044 1 17.0261644554 7.71018426574 0.865057797812
2001 1 18.475355355 9.53328951702 1.17612991887
2334 2 19.720755819 7.4848627183 1.26272405478
2367 1 20.1334066709 9.19019857436 3.05665828651
2372 1 21.9164904092 8.09741634348 0.988864699661
2421 1 22.4717594808 10.4163852911 1.4331522633
2323 1 22.8113629415 8.98821408067 3.34858223172
2059 1 24.3270038012 8.45927081388 1.34939832897
2657 1 25.7106917933 8.75934681505 3.24852258121
3022 1 25.5728420282 10.4633566067 0.874170483357
2643 1 24.2811203907 10.8009112235 3.01235626094
2979 1 27.1155425436 10.7012796302 2.98061232275
2985 1 27.096660857 8.5586484517 1.22379105975
3307 1 29.9970531116 10.7011245653 2.99118622418
3313 1 30.033665435 8.57118743145 1.22558102702
3350 1 28.5283834073 10.5098478459 0.967758866237
3351 1 28.5870002316 8.76486194916 3.24367935695
3635 2 32.7939420262 10.7934094746 2.90764887687
3641 1 32.7654399709 8.46827729851 1.22681554291
3678 1 31.3909456097 10.4946324415 0.967056863766
3679 1 31.432224438 8.74295348799 3.25997553765
4006 1 34.189620467 10.4646500117 0.988531326441
4007 1 34.1498943604 8.71064067836 3.25194862329
3963 1 35.5456166002 10.6975012323 3.0214481703
3969 1 35.5688838517 8.47631895615 1.26196007827
4334 1 36.9756768068 10.484442647 1.04162531813
4335 1 36.9653939326 8.7129504878 3.26816004893
4291 1 38.3697740186 10.7281327239 3.05655116485
4297 1 38.3926198761 8.49316666789 1.29152681138
4619 1 41.1389054187 10.8226212375 3.08455275601
4625 1 41.1804869719 8.54871310313 1.33411869138
4662 1 39.7826990102 10.538289639 1.07251786493
4663 1 39.7920547502 8.75172188048 3.30049443761
33 1 45.5744416918 9.29779919973 3.28022473718
71 2 43.7220204547 8.8257778434 1.44638937184
4953 1 42.5505948173 10.6972246191 1.09193617363
4991 1 42.5871890623 8.8765208243 3.3602792442
129 1 45.6011995001 10.8552401214 0.992897421112
398 1 2.87424047653 11.8028685194 1.3928660527
26 2 1.9769685686 13.9488191894 1.88858412302
128 1 0.673477950659 13.2454740584 0.23660033267
399 1 1.41548529878 11.5063461385 3.2252675331
354 1 4.42283833605 13.7622119551 1.63604763806
355 1 4.27793605843 11.5135824198 3.43328187928
682 1 7.1991232133 13.7749179314 1.59317964812
683 1 7.22625775498 11.5938635071 3.40590652651
726 1 5.79477029159 11.7950736267 1.49596750718
719 1 5.72071265767 13.5605093 3.63943266466
1010 1 10.0198663627 13.7948821188 1.57621526151
1011 1 10.1196799007 11.5887346613 3.36086644158
1054 1 8.69472992481 11.8197426559 1.42633172668
1047 1 8.61062182026 13.5634416588 3.58689271218
1382 2 11.3644772268 11.7962662382 1.09961750763
1375 2 11.3793278112 13.7500050603 3.57033023432
1338 1 12.7637425009 13.7181476716 1.54186253465
1339 1 12.6937945414 11.4678454997 3.36092783089
1710 1 14.1574955338 11.7262082181 1.35725460492
1703 1 14.1464002337 13.4451708325 3.510297768
1666 1 15.62237267 13.6839748933 1.53482916359
1667 1 15.6121332656 11.5077382751 3.28910253023
1994 1 18.4707702989 13.4342396171 1.3241774791
1995 1 17.065761659 11.6263482041 1.28136515006
2031 1 17.107476418 13.4312995988 3.45011878574
2366 1 18.4945607815 11.3679743783 3.3418097107
2329 2 19.9113666541 11.2227590902 1.53322308622
2687 1 21.3280079975 13.0120598828 1.05976913242
2688 1 21.3694605628 11.1995093214 3.36606315668
2359 1 19.9965540426 13.2285905381 3.20564344799
2694 1 22.9359106484 12.8955180889 2.8481731543
2642 1 25.7498696117 12.6809835331 2.73998859152
3014 1 25.716648229 14.4520444362 0.496242996109
2382 1 24.1801426509 12.4550719635 0.734845401192
2978 1 27.1386497806 12.4643953917 0.819158849121
3306 1 29.976717149 12.4662141005 0.781832024089
3343 1 28.5727817729 12.6781894381 2.80119317561
3342 1 28.6028019267 14.4516159794 0.564035151552
3634 1 32.8042767995 12.4821903701 0.784554133607
3670 1 31.4053731124 14.462948911 0.57517830679
3671 1 31.3872807041 12.7073292806 2.79127770133
3999 1 34.2103506982 12.735767652 2.79389203926
3998 1 34.2059208214 14.4906889882 0.579674929613
3962 1 35.5837594394 12.4824927633 0.787989000019
4326 1 36.9637239995 14.5076968575 0.563818587213
4327 1 36.9386354355 12.6901646021 2.81793675133
4290 1 38.3578656172 12.5061641093 0.818525167733
4618 1 41.1565361352 12.6045137934 0.81449778135
4654 1 39.7279503267 14.5392097626 0.572502131066
4655 1 39.7535383017 12.7488873833 2.83641805734
4282 2 38.3325832368 14.6146677211 2.52080759208
4946 1 44.0834110589 11.0166884943 3.00190164272
63 1 45.3799981096 13.1261522226 2.72825061984
4938 1 42.5530859099 12.8412620352 2.82872421076
4990 1 43.9868698807 12.6591276369 0.774392145628
390 1 3.12349444888 15.8680857784 1.72909816718
17 1 1.73134657689 17.8266109496 2.02889907121
246 2 0.406088159112 18.1506552468 0.139196265937
18 1 1.54732191709 15.6829759467 3.65425844597
345 1 4.50196774915 17.824815974 1.94707620634
673 1 7.22591489979 17.8226471499 1.95781433981
718 1 5.8532240703 15.7867514195 1.72072929629
1001 1 9.9867957604 17.7947193027 1.98460152704
1046 1 8.58826141421 15.7855781789 1.78535566967
1374 1 11.3903845824 15.7782728366 1.76642645001
1329 1 12.7646318172 17.7775957179 1.92856544769
1702 1 14.1616885703 15.7109392175 1.71007747439
1657 1 15.5655750877 17.6757915945 1.88526100433
2030 1 17.0564019774 15.674824014 1.70790639523
1985 1 18.7092195847 17.4693661943 2.19919700106
2214 1 17.0942302229 18.0219126349 0.0506182163098
2869 1 21.6258980854 15.0454757747 2.67264986136
2358 2 19.662402775 15.228514622 1.52741049245
2870 1 21.3730715686 16.4655614157 0.265467170649
2313 1 21.4486144392 18.1969314251 2.24321704913
2381 1 23.064733729 14.6291579499 0.627660928159
2866 1 24.4859365738 14.6946415041 2.60019279282
2678 1 23.2263797297 16.6393759214 2.29768672509
3006 2 25.8774913625 16.566371718 2.07170868338
2641 1 24.349975655 16.4849873758 0.166264836987
2970 1 27.1774946834 14.6502815056 2.56332138089
3298 1 30.0024483588 14.6655783166 2.58714423627
3297 1 30.0223137939 16.4546591636 0.337553456039
3334 1 28.6289912432 16.6142232198 2.31285024845
2969 1 27.2128961264 16.4427725266 0.225274040376
3626 1 32.8021175151 14.7081349864 2.58312273922
3625 1 32.8075158989 16.4840741336 0.364516494869
3662 1 31.4011489391 16.6915488921 2.37238536244
3990 1 34.2200133207 16.7241168244 2.37645812225
3954 1 35.6168619887 14.7388642909 2.58732601925
3953 1 35.6135967777 16.5090449676 0.384978753474
4318 1 37.0349883075 16.74201465 2.39926133864
4610 1 41.086911103 14.7867499205 2.60435929129
4646 1 39.6158403836 16.7434188412 2.39165006346
4609 1 41.042626355 16.5453624318 0.348383013787
4281 1 38.3425390435 16.5220850089 0.329813303496
4982 1 42.520328074 14.64621632 0.550661548916
125 2 44.998860553 14.9438412576 0.698963277556
27 1 43.7800565485 14.9069832354 2.62230809805
62 1 45.2823074877 16.7776206503 2.15541801375
4974 1 42.3434901741 16.8341505926 2.30823690262
4937 1 43.8442260539 16.8950242524 0.283844845087
573 1 3.14582704196 19.8086101615 2.07271185714
244 1 1.73447254731 21.7704612571 2.03757811031
245 1 0.270674070634 19.7908071077 2.06584789048
205 1 1.5390220056 20.1381722988 0.101077646642
861 1 7.19887942805 20.0510435885 0.177147079135
901 1 5.80625790539 19.8501416179 2.17909270612
859 1 7.18573549525 21.8389866016 2.38437548378
531 1 4.37797140338 21.8469277062 2.36501974057
533 1 4.42680151025 20.0223452166 0.0814174842957
1189 1 9.99487475187 20.0586968596 0.165782953259
1229 1 8.60156446085 19.8254986983 2.18243599839
1187 1 9.97238737381 21.8276560957 2.36786794615
1557 1 11.3550775613 19.8013724069 2.133270431
1517 1 12.7540747775 20.0410345654 0.1200852728
1885 1 14.1967207846 19.7619045008 2.08501873416
1515 1 12.7571476078 21.7968353843 2.3383119771
2213 1 16.825683412 19.71520605 2.01098178732
1845 1 15.524987292 20.0124446523 0.0545614653014
1843 1 15.5226713309 21.8021617348 2.33185111492
2171 1 18.3650516765 21.7048550233 2.22945449736
2173 2 18.1449336474 20.1588125664 0.00290017866879
2828 2 20.527301769 20.3192917062 2.10081014546
2541 1 21.6797724302 20.3441606628 0.0742325486357
2542 1 19.9495032989 18.4879411442 0.152871688771
2829 1 22.9296220282 18.3664768086 0.137390211255
3198 1 25.7609015415 18.4570253447 0.0959125360379
2868 1 23.0129856112 20.421970017 2.13748610365
3196 1 25.8802945333 20.590732553 1.98340676116
2500 1 24.446100573 18.5888726595 2.17359792712
2895 1 24.3399959639 20.4324720365 0.0015189476142
3526 1 28.6698292919 18.463462148 0.0809508432945
3157 1 27.3571862122 18.631450359 1.97691377935
3485 1 30.0076311247 18.6808149753 2.14839676092
3524 1 28.6899156521 20.7237489583 1.93411403636
3854 1 31.41295654 18.4792263805 0.138467605204
3813 1 32.7961484955 18.6876071371 2.15958461766
3852 1 31.4464375185 20.7034328718 1.95030348643
4182 1 34.2111504977 18.4981467387 0.156997741297
4180 2 34.2022402435 20.6199150145 1.87661552003
4510 1 36.9656938237 18.514380049 0.124593962169
4141 1 35.6423096694 18.7152933209 2.16490881187
4508 1 36.9466639169 20.7900537244 1.95949747047
4797 1 40.9649076738 18.7715308857 2.13743110841
4469 2 38.3387916207 18.8597911443 2.05812642463
4836 1 39.7476111692 20.8273037338 1.91070017201
4838 1 39.7084008341 18.5415915756 0.0910223095985
5125 1 43.8205466456 18.783393332 2.39686772723
5164 1 42.5410278295 20.7858353877 1.89873945081
5166 1 42.3288005979 18.5878075883 0.205519037114
5191 1 44.2368495805 19.9713452703 0.098492477878
572 1 3.05036252579 22.0301909175 0.183624330616
569 1 2.98156072094 23.8140471283 2.63524440078
627 1 1.65748274609 23.808749541 0.555452120849
5122 1 0.178081120474 23.5446808155 2.87776280107
530 1 4.42408530489 24.0092810533 0.570018535522
858 1 7.15671512238 24.0447192288 0.573003679996
897 1 5.77226209955 23.8307006968 2.63452652866
900 1 5.78100990249 22.0378498177 0.34070351157
1228 1 8.57516615207 22.0654599943 0.355771109315
1186 1 9.94775316058 24.073739531 0.549513170153
1225 1 8.56677887848 23.8383348081 2.5977219641
1553 1 11.3604386706 23.8246521832 2.56277989979
1556 1 11.3655647897 22.0696978699 0.341439097098
1514 1 12.7625952177 24.0689429355 0.538260826894
1881 1 14.13069666 23.8114528155 2.55989878363
1884 1 14.1481916708 22.0363410496 0.323105639263
2212 1 16.8856038422 22.0627957875 0.330891370629
1842 1 15.5126823093 24.0583497011 0.55568978395
2170 1 18.2977056188 24.0142572628 0.532751798694
2209 1 16.9523098389 23.7645936683 2.55621632975
2494 1 21.4340624416 22.3309336044 2.24759495724
2495 1 19.5425477579 23.8467609701 2.55810996411
2537 1 20.9773838805 24.1102103272 0.620303656144
2540 1 19.8637477576 22.0316533772 0.30210347119
2923 1 23.0937389294 24.3640501805 1.64744746178
2826 1 24.4298264145 22.3991041127 1.91125789145
3192 1 25.7676369154 24.6689053194 1.96468793594
2860 2 24.1908519741 23.976205674 3.55548279998
2501 1 22.9148434049 22.4249148149 0.0778758464956
3154 1 27.2301632575 22.6509415137 1.81037955252
3478 1 30.0324070491 24.9401692899 3.54053779808
3482 1 30.0861653082 22.7146688005 1.72614186533
3520 1 28.6066408994 24.7360981533 1.55303022837
3150 2 27.4861924778 24.5080722427 3.57321362637
3806 1 32.8158494538 24.9907416248 3.52876322829
3810 1 32.8459286805 22.7232302936 1.76922075356
3848 1 31.4430858015 24.7395539866 1.53891535263
4176 1 34.2437080976 24.7375310955 1.55172040999
4134 1 35.6794546818 24.9339360696 3.51913057666
4138 1 35.6001923061 22.7621748745 1.8385838965
4504 2 37.0079082186 24.8495068513 1.42285122967
4462 1 38.4049503395 25.0250128924 3.53132173257
4466 1 38.332188909 22.7883883676 1.74379206552
4790 1 41.1974320679 25.0638115579 3.5480561661
4794 1 41.1716272202 22.8000667885 1.7537850467
4832 1 39.7625830575 24.769456063 1.54422721347
5190 1 45.557443846 22.1662671089 0.246313606025
242 1 45.5037098811 25.0964571147 1.18124439492
5160 1 42.5177299542 24.8301200496 1.58660206901
5161 2 43.8655454722 23.0318798874 1.76460052406
5118 1 44.1562887776 25.2945967233 3.29635501035
198 1 1.41379613131 25.5957445336 3.03323652425
568 1 2.94788628598 25.7911849209 1.07147360955
563 1 2.82187349709 27.6453172673 3.14238672616
197 1 1.27864979288 27.560405657 1.20017055398
526 1 4.35834060498 25.8000741795 2.94966642572
525 1 4.20813526143 28.0032614531 1.05589632924
853 1 7.15052910037 28.0609743436 1.07698159617
854 1 7.16792684423 25.8369973116 2.87491615299
891 1 5.70356765158 27.8225793357 3.04797262584
896 1 5.78324327446 26.0544249861 0.928313460559
1181 1 9.95603708996 28.057769726 1.02419519434
1182 1 9.96123940126 25.8370742713 2.79902006184
1219 1 8.55943326888 27.8389489414 3.05395968483
1224 1 8.52364718592 26.0661726657 0.793421674724
1547 1 11.3619266699 27.8398942674 3.03530945487
1552 1 11.3671695122 26.0687488006 0.763068278926
1509 1 12.7458722689 28.0656272821 1.03553830798
1510 1 12.7510556569 25.831588083 2.78468171763
1875 1 14.1477689685 27.8313390886 3.02430486672
1880 1 14.1453256884 26.0752838084 0.766717226964
2166 1 18.2418101769 25.8642049876 2.7756502471
1837 1 15.5512448267 28.0646448192 1.03131098572
1838 1 15.5338410062 25.8073493746 2.78160789851
2165 1 18.2556833653 28.084152407 1.03781661679
2203 1 16.8972650641 27.8350917073 3.04325160556
2208 1 16.8917329156 26.0496322505 0.753597367109
2531 1 21.06067887 25.814722648 2.75111322994
2589 1 19.7156058672 27.8658663614 3.03601477956
2536 1 19.5947466745 26.0719103238 0.809799418909
2487 1 22.37480742 28.0954501889 2.69164956598
2814 1 20.8386352697 28.1622353073 0.915932151487
2551 1 22.3832199606 26.3552080278 0.777424718042
2859 1 23.5380777248 26.1488686245 3.29375009085
2851 1 23.3589289181 28.6660411496 0.565407427243
3186 2 26.0916283864 28.9950582785 0.834044046724
3251 1 24.696392213 26.780858097 1.25905173753
2488 1 24.6329015832 28.8929418688 2.76692900353
3187 2 25.8940027316 27.089711092 3.37551171157
3143 1 27.3237673521 29.0123616296 2.95006386744
3149 1 27.1948352492 26.7931746789 1.1900714109
3471 1 29.9881948028 28.933677787 2.97692649984
3477 1 30.0055449181 26.7327053616 1.30633065567
3514 1 28.61670113 28.7347541796 0.923189086147
3515 1 28.5180531817 26.9122221684 3.27573058284
3799 1 32.85132194 28.9632824467 3.02750106761
3805 1 32.8547237762 26.7515349577 1.30548435849
3842 1 31.4438367913 28.7619328944 1.03769714314
3843 1 31.4147147518 26.9668058118 3.28195817335
4170 1 34.2541739271 28.7640022537 1.03813179617
4171 1 34.2691474403 26.9529738007 3.30318261634
4127 1 35.648171613 28.9920811316 3.07886840851
4133 1 35.6228204309 26.7710013838 1.3047698155
4498 1 37.0381683076 28.7751657899 1.08290385995
4499 1 37.0371591417 26.9945658415 3.33171843101
4455 1 38.4439893082 29.0311965918 3.14138823128
4461 1 38.423305187 26.7857980054 1.33165283855
4789 1 41.1465867911 26.7852690841 1.36759609494
4826 1 39.7586471161 28.7857215591 1.11378860069
4827 1 39.8230113403 27.0380369307 3.3844004033
4783 1 41.1636127869 29.0518982856 3.14297429048
241 1 45.5387469587 27.3846908935 3.18065413816
240 1 43.8730054721 26.8365545879 1.37929744279
5154 1 42.4517586948 28.7999097007 1.16529175414
5155 1 42.6413130815 27.1537258666 3.39013578823
289 2 44.9851210229 28.6958638148 0.881432466251
191 1 1.60697684914 29.7092322809 3.22744985976
227 1 1.8818309324 32.3011815406 1.45497397596
234 1 0.285354101815 31.6902548704 3.06373874456
293 1 0.831096499345 30.2663015014 0.996716518658
555 1 3.03312074488 31.8446829244 3.46682963583
518 1 4.36273122263 32.0235390401 1.44461513035
519 1 4.23059089351 29.7615184524 3.1919077554
846 1 7.16168611288 32.0488107561 1.48648990392
847 1 7.14202181674 29.8150991955 3.28914150366
890 2 5.75715992503 30.0197208154 1.27875462658
883 1 5.74235146928 31.7897518118 3.48694669728
1174 1 9.96310841139 32.0638257319 1.51341496246
1175 1 9.96252384248 29.8401817393 3.28205517265
1218 1 8.56168510308 30.0543238732 1.28745243378
1211 1 8.54833017153 31.8272052352 3.51355509308
1539 1 11.3691727634 31.8440007279 3.52424811771
1546 1 11.3640323199 30.0658013491 1.2695496247
1502 1 12.7667226553 32.0756330537 1.50880374355
1503 1 12.7679653875 29.8437901513 3.27399402681
1874 1 14.1592033435 30.0766864448 1.25663340887
1867 1 14.1640477695 31.8552299898 3.52930573306
1830 1 15.5474759336 32.0945216699 1.48966167743
1831 1 15.5140383016 29.8453051516 3.26065000643
2158 1 18.2578475457 32.1274768838 1.42197836226
2202 1 16.903056388 30.0840334625 1.26693903904
2159 1 18.2503806501 29.8160540653 3.29237114742
2195 1 16.8984240637 31.8456592948 3.5186686952
2530 1 19.507595805 30.1960540898 1.31387834827
2486 1 21.3097813951 32.463760305 1.98076895374
2858 1 21.7081735988 30.4210191511 0.749025395302
2843 1 20.9721745475 30.0652142802 3.1477629181
2523 1 19.4229023673 31.8797994511 3.4864323547
2850 1 22.8788576877 32.5344905792 0.141383304209
2815 1 25.9425181799 30.9812066938 2.54116206623
2806 1 23.2513211593 30.7046875709 2.42280437951
3178 1 25.840328228 32.7372216489 0.268743640744
2836 1 24.3142821899 32.8369234631 2.23349214197
3179 1 24.508354032 30.7566204806 0.444402730035
3142 1 27.4148401211 30.8670025237 0.598823457002
3470 1 29.9732691922 30.7320953882 0.65109627452
3507 1 28.6823221896 30.9779165584 2.75129804783
3798 1 32.837164307 30.7537779985 0.739115054249
3834 1 31.4279622164 32.7377885159 0.485635426724
3835 1 31.4238374245 30.9491530092 2.70207195116
4163 1 34.2330752745 30.9882605638 2.78882654866
4162 1 34.2489800521 32.7663807488 0.539223851033
4126 1 35.650733734 30.7754968471 0.795093298524
4490 1 37.0370781357 32.7985036487 0.578881727137
4491 1 37.0176970498 31.0136495582 2.83138749492
4454 1 38.4049227416 30.792105723 0.854277516683
4782 1 41.0852976449 30.7993662968 0.88264112765
4819 1 39.7892370896 31.0591697454 2.88076666685
4818 2 39.8001121543 32.8192576698 0.650573628521
190 1 45.2530958678 32.5254536238 0.624426972315
235 1 44.3035294018 29.4013448067 2.98556396094
5111 1 43.8743032652 30.7453543615 0.907041633779
5147 2 42.4726462446 30.9826344099 2.77441085527
5146 1 42.5099777776 32.7641087208 0.71698410292
181 1 1.39759916922 36.336820541 2.08794734709
554 1 3.0576357426 34.2602111952 1.6647898155
5102 1 0.19988084234 34.374788022 1.77291568164
226 1 1.67987186044 33.9189893897 3.601731176
410 1 2.94756169286 36.4207510039 0.0179750845153
509 1 4.52602788303 36.0899390163 1.90282516666
837 1 7.1976220231 36.0957939616 1.95152681015
882 1 5.80296708287 34.0353671319 1.68730973515
1165 1 9.98512813313 36.1054459463 1.96717726812
1210 1 8.5706122879 34.0696499588 1.73614004429
1538 1 11.3639554014 34.0818828306 1.74509737306
1493 1 12.7438408193 36.1042284669 1.9722926706
1866 1 14.1500257235 34.0984345946 1.7412696395
1821 1 15.5004586083 36.1399221244 1.96005123622
2149 1 18.2572377145 36.1787234114 1.92261892481
2194 1 16.9010184037 34.1381810686 1.69295051917
2477 1 21.2068286454 36.1220554356 2.19451180875
2522 1 19.5139870381 34.144567337 1.67923786149
2378 1 19.8673992503 36.3171497745 0.060202288158
2798 1 22.6123603236 34.3301705217 3.63258247667
2706 1 22.8351426565 36.5100783651 0.116833524911
2842 2 22.9701359449 34.4926842741 1.4781345097
3170 1 25.6423490772 34.9321034794 2.13000535423
3506 2 28.7234958464 32.91612586 0.481029913553
3462 1 30.0769012869 32.976178564 2.50732066941
3134 1 27.302188239 32.9826743832 2.28690438407
3133 1 27.2026338512 34.7805703486 0.263587381195
3461 1 30.1232380066 34.7957358365 0.229451255039
3498 1 28.7254668393 34.9848293924 2.1637270386
3790 1 32.8255135497 32.9839839582 2.52853732363
3789 1 32.8496866263 34.7570884436 0.296539793417
3826 1 31.4488007215 35.0016788899 2.29683794537
4154 1 34.213202388 35.0222795351 2.32608920123
4118 1 35.6200819782 33.0151090727 2.56834619629
4117 1 35.6356451824 34.7913151373 0.326010299489
4482 1 37.0159790241 35.0297927873 2.34214766319
4774 1 41.2549698299 33.0652598497 2.76866801808
4446 1 38.3855595307 33.0267049551 2.58859714193
4810 1 39.8129616987 34.995736291 2.36502488122
4445 1 38.4315230991 34.8157148675 0.350566177722
4773 1 41.2282189993 34.7806063733 0.40147417373
5110 1 43.992206368 32.9731813895 2.6972533987
5138 1 42.6852109808 34.9493323732 2.40238378109
5101 1 44.0443463143 34.6447907933 0.30162221729
40 1 3.1161184133 3.49505625305 4.27062194824
540 1 3.08885234594 1.09276257882 6.13903609729
174 2 0.711466431981 1.08752330059 6.0360332544
402 1 1.85017419319 3.19689002174 6.21512474369
406 1 1.86334984966 1.45274945097 3.98900935061
78 1 0.415351665491 3.54946292408 3.78966740793
407 1 4.40643815033 3.10078311643 6.41705849822
368 1 4.44763346501 1.3615428058 4.16750523786
692 1 7.18371677677 3.10739121289 6.44231559488
696 1 7.19671222269 1.32388228168 4.18846763228
735 1 5.78110910772 1.08956997595 6.20872662079
734 1 5.82253528483 3.3410333122 4.39990199362
1020 1 9.9912113814 3.10245595589 6.42516371147
1024 1 9.99509311677 1.32496563395 4.20016187409
1063 1 8.58204207394 1.09071413197 6.20933338092
1062 1 8.59093836342 3.34188434589 4.41787214747
1390 1 11.3920813823 3.32578339166 4.40941204313
1391 1 11.351679941 1.08978820194 6.22092196653
1348 1 12.7390343626 3.11279587351 6.42592134348
1352 2 12.7355328481 1.21653952581 4.27609120313
1719 1 14.1305777142 1.1042929606 6.21418753736
1718 1 14.0776296347 3.33667787006 4.40605148685
1676 1 15.4754466944 3.14033352386 6.39939595238
1680 1 15.461953135 1.35503269459 4.19052507926
2008 1 18.3168085253 1.4033975 4.2410164826
2047 1 16.8684422909 1.16220302441 6.17381734036
2369 1 18.3457459476 3.11358511878 6.41671691839
2046 1 16.8893603099 3.34756072486 4.43400771022
2333 1 20.9742600036 1.25934509772 4.16793341065
2698 1 19.8478128951 1.10199728598 6.38304022512
2697 1 19.7674688606 3.31558394842 4.50019840524
2325 1 21.2858486438 3.17065746874 6.45737967631
2374 1 22.3332627504 1.03794886204 6.09775984658
2662 2 22.4040514285 3.02712159457 4.26559950447
2701 1 24.6056092121 2.68458527407 3.7100479469
3033 1 25.9837921343 0.720215563867 3.99827413863
3030 1 25.8624988402 2.95332389252 5.84642730237
2704 1 24.7612745063 0.717209143126 6.05200723271
2705 1 23.1898254176 0.423489884676 3.95477721584
2664 2 23.8064685103 2.51398323578 7.00523255521
2991 1 27.3021543972 2.74331419956 3.80077855236
2992 1 27.3464586923 1.07393884961 6.06303278479
3319 1 29.9611175508 2.75766744473 3.79292605183
3320 1 29.9592980877 0.929184176765 6.08050683152
3358 1 28.6462593382 3.02782076005 5.86160704166
3361 1 28.685755065 0.740862409558 3.97355287849
3647 1 32.7576258209 2.71633984369 3.84673740065
3648 1 32.7855139968 0.904400708727 6.09246583769
3686 1 31.3897352904 2.91843427683 5.86417102611
3689 1 31.37073714 0.711715341883 4.0731904442
4017 1 34.2000019106 0.707717206913 4.10549212797
4014 1 34.1648772459 2.91567147072 5.84828565368
3975 1 35.6159834211 2.7029668693 3.90139903552
3976 1 35.6177194622 0.939017331031 6.1190949919
4342 1 37.0311155194 2.9349662703 5.91931286241
4345 1 37.0218129518 0.706229507751 4.12380579242
4631 1 41.2867562924 2.50869653825 3.87456504736
4303 1 38.4379466874 2.69259466185 3.91594728256
4304 1 38.4387465249 0.962299254396 6.11890786412
4632 1 41.2576536859 1.01417208073 6.06639415702
4670 1 39.8497534063 2.95451448704 5.86091147992
4673 1 39.8435439569 0.648150787119 4.1254538049
218 1 45.3161921038 0.824700056292 4.100659687
79 1 45.2079459438 3.1265509774 5.94401467093
4959 1 43.8204025975 2.63276673489 3.88925469067
4998 1 42.5946409689 3.208586917 5.89748811231
5001 1 42.8449614758 0.287596336713 4.11641170918
37 1 43.8051800788 1.20696348901 6.13961842623
401 1 1.45780494631 5.34173849909 5.05058466393
30 2 3.21770793452 5.12527433101 6.55094461653
393 1 1.41107335303 7.05998307529 7.22129815541
363 1 4.55838283002 5.40027489916 4.7393890929
691 1 7.1652230211 5.36087628567 4.68884194251
729 1 5.80897570377 5.12460887496 6.75588250035
685 1 7.17940704073 7.13218862077 6.97705348421
357 1 4.33932068086 7.16355122005 7.04400463229
1019 1 10.0035667726 5.33921813227 4.6544777784
1057 1 8.58903770963 5.12049461588 6.68000849475
1013 1 10.0104499351 7.1320270461 6.91784902156
1385 1 11.3834306478 5.12089846079 6.65551730601
1347 1 12.7552816622 5.36988742355 4.64339913744
1713 1 14.1269532954 5.14138792403 6.65115848486
1341 1 12.7801279643 7.16928992079 6.86941422957