ITEM: TIMESTEP
12000
ITEM: NUMBER OF ATOMS
5248
ITEM: BOX BOUNDS pp pp pp
0.0 45.68
0.0 36.5618393957
0.0 36.5618393957
ITEM: ATOMS id type x y z
409 1 2.70825391091 1.02891546465 2.01659513271
39 2 1.8960050448 3.03187859088 2.44334433357
41 1 1.51216956669 2.19374703929 0.0685599201647
82 1 0.133275952362 0.279712554931 0.421494455898
697 1 7.20229563581 1.81066168571 0.136093684618
737 1 5.6747320306 1.51853912296 2.09073360804
695 1 7.16595461194 3.51644465144 2.32089517587
367 1 4.29159011216 3.47762737971 2.24049632934
369 1 4.31497816664 1.80739612496 0.086542296635
1025 1 10.0085837391 1.78735109726 0.144462754839
1065 1 8.6027681255 1.55503887648 2.15281524893
1023 1 10.0106382849 3.55909494401 2.39787464809
1393 1 11.377704702 1.56086299049 2.14635101563
1353 1 12.8023557391 1.78885097519 0.162399623198
1721 1 14.1911331055 1.56657504321 2.15742933779
1351 1 12.7985724307 3.56701936692 2.40917708762
1681 1 15.5765430113 1.79531217904 0.163806426371
2049 1 16.9111200993 1.61135119474 2.18976901272
2009 1 18.3937630503 1.79104906906 0.165918342487
1679 1 15.5526952701 3.59244409366 2.42866522958
2007 1 18.3782029269 3.54663120015 2.45450846584
2377 1 19.5779835617 1.5140782194 2.17832066116
2337 1 21.5038027696 1.55715806022 0.188553867497
2335 1 21.0710196393 3.36641054545 2.43647086125
2477 2 21.6141117134 0.818563123069 2.59193019939
2336 1 23.2807928977 2.41284022471 2.35410650779
3032 1 25.9652398637 2.84666913331 2.1948976902
2665 2 25.109413307 0.881868427865 1.93998516178
2705 1 23.7681020726 0.0724004972817 3.48406134197
3360 1 28.726579995 2.34865298114 1.72091924618
3321 1 30.0829480991 0.458496618538 2.1046629914
2993 1 27.3378572526 0.450323257258 2.05032526013
3362 1 28.6320293413 0.213996842536 0.0431064705237
3649 1 32.8265830893 0.499308152614 2.1492207654
3688 1 31.3885419485 2.53807250281 1.87456620316
4016 1 34.2329256922 2.48677003839 1.94050906736
3690 1 31.4607136184 0.243980265026 0.109877137173
4018 1 34.234544667 0.255202228517 0.157885161391
3977 1 35.6382843978 0.467147429754 2.17540364862
4344 1 37.051221045 2.46583242324 1.97328664999
4346 1 37.0517873287 0.250478922128 0.182534514809
4305 1 38.4749967451 0.455596442245 2.17824172857
4672 1 39.8936296235 2.45480705275 1.98505251226
4633 1 41.3240234859 0.430609723214 2.19437297122
4674 1 39.9193840213 0.257380023112 0.173930719675
4699 1 41.3550586107 2.26283044733 0.00911983359628
81 1 45.5736717451 2.1315186868 2.10512106465
5000 1 42.7127922974 2.43843196712 1.9942883029
4961 1 44.0616175816 0.353456595076 2.20728836232
5002 1 42.8039776301 0.236512457741 0.141724078473
5027 1 44.2591581179 2.19813868049 0.107477633683
36 2 3.33988153674 5.73667307152 2.63724653075
77 2 0.210209787673 5.64946312415 3.19104038932
35 1 0.134668455096 6.64605156554 0.942549613524
366 1 4.49712792074 5.78494693306 0.540052384748
694 1 7.22130608972 5.77291985567 0.568098525627
733 1 5.82849773959 5.52146196291 2.54336689695
736 1 5.78104918682 3.7708310664 0.29361082172
1022 1 10.0256931549 5.80198771609 0.613725709384
1061 1 8.59241401681 5.54334525572 2.60254334962
1064 1 8.62427269541 3.79133074561 0.359074636184
1389 1 11.4210918395 5.57041956606 2.62559134586
1392 1 11.4204989049 3.79849882261 0.390870264682
1350 1 12.8365910017 5.82111037432 0.628626836147
1717 1 14.2035782334 5.596638148 2.63938511364
1720 1 14.2055094287 3.81031846917 0.404263806837
1678 1 15.6527285586 5.81746752936 0.648999600178
2006 1 18.4277165809 5.67974824122 0.64109878698
2045 1 17.0113676173 5.56537616725 2.68628869515
2048 1 17.0031652511 3.76798773638 0.42043645403
2376 1 19.8991968375 3.66938362608 0.41440260052
2373 1 19.7686199128 5.45507451362 2.71117243597
2387 1 21.2149409974 5.65461513205 0.733325114849
3029 1 22.5261478977 5.24429946206 2.82833605344
2767 1 22.752556028 3.68925315818 0.387541185832
2722 2 22.8851940468 7.09135831164 1.38006892861
2663 2 24.5169321637 4.59666227439 2.11177390798
2695 1 24.4593337673 6.85388082578 3.28637508483
3028 1 26.2063364866 6.41364293227 1.55038758184
2702 1 26.3068179967 4.90204361544 3.53812204873
2986 2 27.5067253878 4.16640682277 1.20212819529
3318 1 29.9269714927 4.55538678256 1.66433219005
3356 2 28.8651686261 6.8925857812 1.54551805906
3023 1 27.3955981451 6.90883602228 3.58578122916
3314 1 30.1601259796 6.80491851843 3.56030937581
3646 1 32.8263572485 4.4995209006 1.69243793524
3684 1 31.4653308694 6.51964811762 1.51017160565
3642 1 32.896115556 6.72046875548 3.48988040069
4012 1 34.2630812927 6.49231875597 1.48697471161
3970 1 35.6610871014 6.70491496724 3.50842799324
3974 1 35.6467495026 4.47755355354 1.72668389982
4340 1 37.057272699 6.47438463591 1.49307527653
4298 1 38.4463298469 6.69666664976 3.50432097281
4302 1 38.4691591218 4.46508449623 1.75200443383
4630 1 41.2992550684 4.46641813383 1.76701502959
4668 1 39.8640741445 6.47482604129 1.51842184078
4626 1 41.2508987624 6.80198550331 3.47048928594
4958 1 44.1846574437 4.39322442318 2.16189511783
4996 1 42.6763125944 6.47374258404 1.54492192596
4954 1 44.1521937261 6.98995082161 3.33361586963
80 2 45.5456741469 4.13109175266 0.0174297338256
70 1 1.52268127682 7.42682625275 2.97802438834
38 1 1.3626119896 9.35593367975 1.16461164394
404 1 2.9454350149 7.59687856465 0.926603326195
392 1 2.85752308333 9.50518138001 3.10809441049
362 1 4.4546431808 7.63529094267 2.86911373092
361 1 4.37068384998 9.67935254039 1.06519828636
689 1 7.17250923895 9.8153485729 0.991614063018
690 1 7.18656864423 7.54530758254 2.82257275419
727 1 5.81133538173 9.57187987379 3.07419609574
732 1 5.849599315 7.79539490781 0.796875024461
1017 1 10.0271580651 9.79382126211 1.04233766379
1018 1 10.0202035455 7.5690336281 2.82821913825
1055 1 8.61007818153 9.55572329196 3.00703284977
1060 1 8.61370477112 7.80512212159 0.828210296402
1383 1 11.4340897537 9.58845379961 3.04223655477
1388 1 11.4467101232 7.81857614886 0.851982160086
1345 1 12.8478399902 9.82572879133 1.05942968909
1346 1 12.8143673176 7.58868274993 2.84135876343
1711 2 14.259991205 9.50574424568 2.94815329046
1716 1 14.2676809671 7.8386215013 0.855752989834
2002 1 18.4831692566 7.57460338011 2.94168141794
1673 1 15.7494207185 9.85472605469 1.07499295923
1674 1 15.6737942478 7.58317970836 2.85768144584
2039 1 17.1159238664 9.57365885007 3.09024428473
2044 1 17.0992698972 7.8068487656 0.891024250277
2001 1 18.5120805165 9.86616253241 1.12560213447
2759 1 21.2297239308 7.328462269 2.96527632451
2334 2 19.6759388127 7.53531196066 0.995879536979
2367 1 20.0757561506 9.50352837353 2.96498020348
2372 1 21.7645890809 8.68526964828 0.438971006276
2329 2 20.595349098 10.6153065057 0.715765138934
2688 2 21.8002249376 10.9588066378 3.48614773934
2421 1 22.8893798217 10.7465186367 1.2075935678
2323 1 22.9431528419 8.9124061958 3.20393130736
2059 1 24.5007806536 8.63728225867 1.37103005083
2657 1 25.8930367122 8.76543080242 3.29726009834
3022 1 25.8715341077 10.5519871734 1.09601912983
2643 1 24.435837557 10.76181339 3.11618371463
2979 1 27.3204908466 10.7057725573 3.06651980292
2985 1 27.275013153 8.59009500321 1.29312441779
3307 1 30.1453002454 10.7483012207 3.05890282221
3313 1 30.2106583859 8.64613206227 1.29078217074
3350 1 28.6998497098 10.5726534962 1.03721014262
3351 1 28.7696840463 8.79855472335 3.30193355971
3635 1 32.9506112595 10.7675348296 3.07115788099
3641 1 32.8933723254 8.51531891247 1.28138813309
3678 1 31.5671898778 10.5713829401 1.05502290652
3679 1 31.5688025888 8.77539659248 3.31898606738
4007 1 34.3050823731 8.72964640483 3.28068629064
4006 1 34.3175061102 10.5204694603 1.04974179401
3963 1 35.7011634293 10.7401382361 3.06788911865
3969 1 35.6732992886 8.49000288731 1.27320727885
4334 1 37.0603448085 10.475356915 1.05014589387
4335 1 37.0599993567 8.71315062696 3.29036987428
4291 1 38.4459405234 10.7269955077 3.07104875357
4297 1 38.4598276396 8.48663616881 1.27868614207
4619 1 41.2208551805 10.7636554527 3.09951081275
4625 1 41.2147792099 8.52931685634 1.34671613462
4662 1 39.8507743846 10.5011208549 1.06673121708
4663 1 39.8179595042 8.74078094652 3.31660249947
33 1 45.6116575176 9.1986158863 3.20472086491
71 1 44.0689870262 8.53658717078 1.34578271532
4953 1 42.5905489248 10.5581050037 1.07549971926
4991 1 42.662265762 8.84370032455 3.30214336913
129 1 45.0908784661 10.6447037252 1.13277432019
4946 1 44.0336339313 10.9349951882 3.2420461524
398 1 2.92508288595 11.5350196182 1.38400751247
26 2 2.04341269112 13.8866619636 1.77725708851
128 1 0.831331485703 12.3475871683 0.722736902022
399 1 1.28546090764 11.3897871465 3.2290808015
391 1 3.11900304605 13.5345504365 3.64388723473
354 1 4.35836090302 13.8147115776 1.42534682086
355 1 4.34605237675 11.4625863467 3.30957459011
682 1 7.19636892595 13.7849080453 1.43347893552
683 1 7.24295551245 11.5510233494 3.23687134872
726 1 5.76493966053 11.7813044198 1.3324602062
719 1 5.75676883633 13.5156817075 3.41495499533
1010 1 10.0350050468 13.805921709 1.4829799779
1011 1 10.0216676493 11.5627317278 3.24200206255
1054 1 8.64480966079 11.7922775646 1.25733521501
1047 1 8.61530731008 13.5671578919 3.44109562684
1382 2 11.4315796722 11.8034925392 1.26426888853
1375 1 11.4367999305 13.5409038204 3.49224613745
1338 1 12.8452454424 13.7822506429 1.52146293138
1339 1 12.8631238644 11.5484306876 3.33067960372
1710 1 14.2724371822 11.8021022331 1.33689221673
1703 1 14.2481525078 13.5471901652 3.51020931148
1666 1 15.6708902452 13.8291222088 1.52163912253
1667 1 15.6771792566 11.5567339287 3.29739237878
1994 2 18.3515140278 14.0572176977 1.43475347042
1995 1 17.1560028395 11.8716625462 1.38175366824
2366 2 18.4460182196 11.4875889827 3.44782061623
2031 1 17.029490443 13.5777219481 3.47818334725
2359 1 20.1535471666 12.4003170464 1.92434958618
2381 1 22.1886342176 14.4969028758 1.42674467765
2679 2 20.8635735951 14.2254147826 3.21892657863
2694 1 22.9365423323 12.7045446694 2.66508956951
2642 1 25.9110071289 12.6612550234 2.72115102147
3014 1 25.824066556 14.461896198 0.462469005399
2382 1 24.3861951451 12.544336917 0.788744591824
2978 1 27.2620812286 12.5108614115 0.752449147265
3306 1 30.1173433807 12.5293261655 0.813575848568
3343 1 28.6878941731 12.7047838734 2.80731851553
3342 1 28.6831354904 14.488748021 0.5567337549
3634 1 32.9506819141 12.5475486852 0.828696759447
3670 1 31.5217301135 14.5146996468 0.601351013438
3671 1 31.5319085677 12.7400394982 2.83616694498
3998 1 34.358621873 14.5391997995 0.62691454052
3999 1 34.3520206466 12.7711227721 2.84145687442
3962 1 35.7416070955 12.531210732 0.822890909122
4326 1 37.1498122193 14.524473261 0.627613302515
4327 1 37.0946128626 12.732016745 2.83843590486
4290 2 38.4519980632 12.3805511843 0.728511534364
4618 1 41.1857866253 12.5489179684 0.814270479226
4654 1 39.758537171 14.5292043066 0.604967658325
4655 1 39.8258042781 12.7229433091 2.84149360846
63 2 45.0825838313 12.8975096621 2.52742167017
4938 1 42.5344083658 12.7738451685 2.86710116426
4990 1 43.8952385484 12.6755350055 0.658422557467
4982 1 42.4657372036 14.5895913599 0.474618977336
390 1 3.01286860564 15.9763871313 1.94189711183
17 1 1.28899275184 18.0149205282 1.85300198049
382 1 3.12062874617 17.6922598107 3.64734907289
83 2 1.75637589496 16.3347582853 0.0194057915124
345 1 4.55567672713 17.8616550407 1.7978032826
673 1 7.26610291737 17.8227832227 1.79916045965
718 1 5.84055442331 15.7909434001 1.51170768937
346 1 4.75026825122 15.7383669639 3.49341665309
1001 1 10.0293531189 17.8055340379 1.88385394875
1046 1 8.61489699358 15.791594006 1.67133808601
1374 1 11.4419626885 15.7940882624 1.71514083329
1329 1 12.8186100866 17.8200196173 1.91451825049
1702 1 14.2170304294 15.801057307 1.73782726319
1657 1 15.5913544171 17.8294191525 1.90963733751
2030 1 17.0767049162 15.9395532648 1.7690111045
1985 1 18.4233237753 18.0351437365 1.88475405096
2869 1 20.0355369902 16.2129614315 1.99307116716
2870 1 21.3995920846 16.5875554639 0.112776204837
2866 1 24.497286352 14.6479109135 2.45764511567
2678 1 23.0403070094 16.6799556437 2.27107992186
3006 1 25.8416291137 16.6137775191 2.26306851835
2641 1 24.185245607 16.270625725 0.178457636309
2970 1 27.2743311065 14.6719058534 2.529582192
3298 1 30.098283039 14.6956450362 2.59437045597
3297 1 30.0939791846 16.4791203104 0.362489817141
3334 1 28.6797770139 16.6455157249 2.34234181185
2969 1 27.226862127 16.4435125848 0.294723689097
3626 1 32.9251952129 14.7494617328 2.62154549663
3625 1 32.9213885498 16.5123597474 0.407570523659
3662 1 31.4802859691 16.7156951203 2.39831983887
3990 1 34.3436200327 16.7486806224 2.41672166043
3954 1 35.7875600306 14.7853203574 2.62496538039
3953 1 35.775692618 16.5295367475 0.432086107558
4318 1 37.2089877331 16.7829227752 2.42266334941
4282 2 38.468057842 14.6617636343 2.74711953807
4610 1 41.1226274605 14.7590373603 2.58909000966
4646 1 39.7071828867 16.7714373543 2.41985155888
4609 1 41.0884417916 16.5709067809 0.390784162296
4281 2 38.4564690078 16.546358985 0.18045940487
125 1 45.5321397359 14.6454536998 0.589827860211
27 1 43.7777704443 14.7596290557 2.40203451843
62 2 45.1178772255 16.5028330667 2.42929543034
4974 1 42.4778331924 16.7419081684 2.35535163623
4937 1 43.8950731505 16.5221196797 0.288701460505
573 1 2.98756127069 19.7603167791 1.90824947
244 1 1.75711029651 21.7840634402 2.16416511957
861 1 7.21096252977 20.0647873368 0.0428332687291
901 1 5.86917523981 19.8551727504 2.04538039281
859 1 7.23808855498 21.8383111257 2.30804646098
531 1 4.41940547444 21.7999484072 2.24812288684
533 1 4.45413134288 20.1115923466 0.00532176898057
1189 1 10.0395616126 20.0614602843 0.0463234349745
1229 1 8.65075953063 19.8296663377 2.05723967406
1187 1 10.032546548 21.8224477584 2.33144320254
1557 1 11.3890346346 19.8221198459 2.05692659721
1517 1 12.8390483975 20.0572176357 0.103575576627
1885 1 14.2302859226 19.8480617711 2.06420415175
1515 1 12.8076194798 21.822948658 2.36633222993
2213 1 16.7902524183 19.9340001604 1.9019830409
1843 1 15.5003195556 21.9280871251 2.38048939898
2172 2 18.2059782749 20.1050024056 3.48925143522
1845 1 15.550603562 20.0824715053 0.00178475114813
2313 1 21.4531144076 18.5788136619 1.78782463605
2828 1 19.9035624623 20.3628833964 1.90933946932
2868 1 23.1323517625 20.4136568305 1.80450800454
3196 1 25.9098153774 20.5743556458 1.88839420768
2500 1 24.4767458289 18.5493719836 1.93822537912
3198 1 25.8088946925 18.3566135145 0.00467207506656
3526 1 28.6847944498 18.4466271651 0.0923603937971
3157 1 27.3218704071 18.6150904591 2.01794053314
3485 1 30.038640646 18.6865604039 2.16460661189
3524 1 28.6479135818 20.6822015856 1.91781792035
3854 1 31.4886497125 18.4874591493 0.179622573431
3813 1 32.8776963072 18.7202868374 2.19843358019
3852 1 31.4371971215 20.7002121104 1.99155514509
4180 1 34.261579602 20.736386697 1.99607109493
4182 1 34.3129191932 18.5148464612 0.205907937727
4510 1 37.083764094 18.5616881042 0.182153640445
4141 1 35.7412433789 18.7383737685 2.20701875218
4508 1 37.0376345161 20.8105831883 1.97833313553
4797 1 41.1362679825 18.7300522993 2.17758227278
4469 2 38.4662173071 18.979658302 2.17593903227
4836 1 39.888258066 20.8197947286 1.95737455487
4838 1 39.8191264836 18.5973590958 0.149393282629
245 1 45.668284958 20.2182378049 1.96554658015
246 2 45.1693324675 18.5750939741 0.0550344325439
5125 1 43.9404036628 18.6243639333 2.13351961754
5164 1 42.6116643539 20.6777520712 1.92786199372
5166 1 42.5446922781 18.5630605474 0.170761813564
569 1 3.06872676456 23.8005336833 2.61973309748
627 1 1.74777201246 23.9798893338 0.695969466206
5122 1 0.41921893677 23.5523775372 2.79982593835
198 1 1.48509334657 25.5618294609 3.0767542335
572 1 2.97315684856 22.0443579998 0.130164870119
5190 1 0.144779669582 22.2059963788 0.207001545898
530 1 4.41207346648 24.0294338762 0.528829316546
858 1 7.23293980602 24.0382651454 0.559044145445
897 1 5.80477687614 23.8168114716 2.57017859279
900 1 5.81875280532 22.0791927903 0.261557075505
1228 1 8.63912521498 22.0447632174 0.300590197283
1186 1 10.0307450655 24.0524253258 0.569869336722
1225 1 8.63059009852 23.8244110953 2.58112995117
1553 1 11.4180701615 23.8207663925 2.59326640191
1556 1 11.4327791498 22.0504774084 0.332336486456
1514 1 12.7972848682 24.0529578256 0.584687149385
1881 1 14.1639847751 23.8620918268 2.62763702826
1884 1 14.2026525794 22.0771468105 0.350040062295
2171 1 19.0094982671 22.4932083023 2.60308171097
2212 1 17.0230029871 22.0290636745 0.459185269895
1842 1 15.5875286316 24.0338291989 0.635748313663
2170 2 18.1196877524 23.9652488085 0.449011603736
2209 1 17.0150019535 23.8446455913 2.65277628964
2540 1 20.0117962345 22.2508995099 0.283490172979
2494 1 21.8182484505 22.1332141464 2.46584181256
2495 2 20.8592607889 24.0241232483 1.87638692957
2923 1 23.2870695386 24.3486366626 1.37920598631
2826 1 24.5354720804 22.4001067976 1.56969873509
3192 2 25.8980826253 24.5519717692 0.941447943341
2822 2 25.8826027781 22.6228337243 3.56886070296
2860 1 23.6600936258 23.3355450294 3.62686778091
3154 1 27.2731002988 22.6580451763 1.64008583763
3478 1 29.9987237318 24.930431852 3.52712068551
3482 1 30.0364034348 22.679716062 1.74110677309
3520 1 28.7013302126 24.6759077288 1.35870558971
3150 2 27.6961831462 25.0986768234 3.25751469281
3806 1 32.7621145728 24.9442860501 3.55521306835
3810 1 32.798793945 22.7155527133 1.78147482615
3848 1 31.4014721964 24.7330614897 1.52254100674
4176 2 34.1962736976 24.670099797 1.63981292078
4134 1 35.6231692601 24.9711925904 3.53635810575
4138 1 35.6302427865 22.7562441849 1.76158298378
4504 1 37.0014880426 24.7808481688 1.51741484601
4462 1 38.4480747919 25.0000892447 3.4935604491
4466 1 38.4465283698 22.7998748465 1.7375750196
4790 1 41.2659474538 25.0385080168 3.43423797019
4794 1 41.3062738374 22.7638567423 1.7139958016
4832 1 39.8567152413 24.7754761647 1.48667838326
242 1 45.2151499439 24.849209884 1.12006961615
5160 1 42.6963076508 24.7229052155 1.48058621805
5161 1 44.2370308036 22.4339182542 1.99278850562
5118 1 44.1639355986 25.0184114836 3.36405874916
568 1 3.13748830456 26.0825069017 0.779924524031
563 1 2.819429073 27.6627842534 3.07654058495
197 1 0.899880527836 26.8100763933 1.15960059054
293 2 2.51569304858 28.422841492 0.889636232531
526 1 4.36951385562 25.799558567 2.86030548704
525 1 4.63743359309 28.0852821555 1.1069194987
853 1 7.1832377547 28.0783433342 1.04879983848
854 1 7.2132083916 25.806327852 2.83491699996
891 1 5.80468053982 27.7631166942 3.09900659012
896 1 5.82670766923 26.0319804211 0.85025882909
1181 1 10.0157394269 28.0681024176 1.03363658496
1182 1 10.0251071473 25.8316919481 2.80996168788
1219 1 8.60598391184 27.8225652481 3.04039286843
1224 1 8.60774860981 26.061148722 0.818031705066
1547 1 11.4166434554 27.8508937017 3.02364962657
1552 1 11.4334847726 26.072648215 0.805787213843
1509 1 12.8244815778 28.0695533969 1.01561812378
1510 1 12.7749457202 25.8502746235 2.83267029256
1875 1 14.1882712788 27.8477913194 3.02140002992
1880 2 14.2003406564 25.9748037189 0.904127352564
2166 2 18.1781869626 26.1007178327 2.84937592173
1837 1 15.5559552114 28.0904675261 1.00559010733
1838 1 15.584090467 25.8327424962 2.8492275655
2165 1 18.3435634978 27.9726618653 1.01459151981
2203 1 16.8814418305 27.9018538437 3.06377688545
2208 1 16.8932425442 26.073875146 0.814388761442
2589 1 19.8496719874 27.739449863 3.04829663177
2536 1 19.6115755676 25.8199017346 0.899637606993
2487 1 22.6756755792 28.0111975021 3.13599622189
2814 1 20.9187115869 28.1008762939 0.78688827106
2551 1 21.9475698376 26.2592880906 1.61384927577
2859 2 24.0574419911 25.6184753867 3.13717538492
2851 1 23.2263028719 28.6909552518 0.94241739034
3186 2 25.9574354282 28.6442186977 0.89789496426
3251 1 24.5516041741 26.6978256174 1.2888885772
2488 1 24.8684185377 29.0276977078 3.14665542244
3149 1 27.3050922108 26.658649284 1.24137740023
3471 1 29.9989314226 29.014762011 3.06157066897
3477 1 30.0647757493 26.7662556925 1.26978955993
3514 1 28.6314593914 28.7282635452 1.02028905212
3515 1 28.6209269444 27.0830290249 3.33279218217
3143 1 27.3508543181 29.2024774151 2.90222240879
3799 1 32.8000552387 28.9576047549 3.05924747729
3805 1 32.8061629145 26.7287687536 1.27798270541
3842 1 31.4469408265 28.7725450774 1.08121021699
3843 1 31.3738380663 26.9507657792 3.29136284732
4171 1 34.1826261105 26.9411949437 3.27824437153
4170 1 34.1857788987 28.7473540082 1.04593120526
4127 1 35.58102562 28.966707662 3.04522921254
4133 1 35.5768818616 26.7513868711 1.28808973976
4498 1 37.009294437 28.7626962567 1.08330943826
4499 1 37.0061467647 26.9837266055 3.27502428119
4455 1 38.4372492616 29.0097949594 3.08750157764
4461 1 38.4256422997 26.7759055099 1.29921559907
4789 1 41.2559759066 26.7864583373 1.32576432565
4826 1 39.8464948126 28.7989916463 1.11261771201
4827 1 39.856204227 27.0352208456 3.29557842025
4783 1 41.3090956228 29.0580552092 3.1291632454
241 1 45.4746940906 27.2203107465 3.21220709464
240 1 43.9196243489 26.8389656142 1.23210206486
5154 1 42.5792466047 28.847072136 1.12342094558
5155 1 42.7235374803 27.0510987287 3.30889318351
289 2 45.1025299079 28.7319434319 0.885206506367
235 1 44.2070631272 29.2039966367 3.11746755526
227 2 1.80909691655 31.4108342442 1.52943374713
234 1 0.0740149365915 31.2923274124 3.113934016
555 1 2.98725676483 31.5012841968 3.40881322854
190 1 0.110421560265 32.5743026 0.627116692949
518 2 4.68440844757 32.2116593081 1.62577374405
519 2 4.49698372097 29.6172607814 3.40449862751
846 1 7.21067783806 32.0907250771 1.48046886521
847 1 7.19167197373 29.797867849 3.27980301359
890 1 5.80887708417 30.120608925 1.2754803457
883 1 5.83135122642 31.7883968727 3.52766384838
1174 1 9.9871507581 32.0858390611 1.48001854376
1175 1 10.000621173 29.8414264437 3.2636929476
1218 1 8.58614497822 30.0729699842 1.27155369231
1211 1 8.57803261563 31.833464468 3.48601188062
1539 1 11.3851109601 31.8583385173 3.48398073283
1546 1 11.4094321559 30.0701267716 1.25500210267
1502 1 12.7873960896 32.0947989343 1.47692095533
1503 1 12.7969874949 29.8549309197 3.25583602842
1874 1 14.1825943795 30.0869521342 1.23456907641
1867 1 14.1672085682 31.8881390053 3.48496485896
1830 1 15.6015204048 32.0834270344 1.47322430356
1831 1 15.5457312645 29.8936016239 3.24072387184
2158 1 18.4453240188 32.1156097408 1.47463478928
2202 1 16.9969916919 30.0567719981 1.26572836335
2159 1 18.3281724936 29.8837271322 3.36162030519
2195 1 16.9762044004 31.9080157253 3.48487974647
2530 2 19.5410116251 29.8467027342 1.50995516029
2486 2 20.8644833779 32.6567308863 1.25701797374
2858 1 21.6514683151 30.5310054616 0.623597132131
2843 1 21.0609766007 29.8158122638 3.29516407797
2523 1 19.8110944459 31.9723078911 3.5050493447
2815 1 25.984373496 31.1791515625 2.85126965861
2806 1 23.2341357949 30.5165193113 2.66166732475
2836 1 24.350370385 32.7438596483 2.42196537317
3179 1 24.6431443414 30.739216279 0.855718039539
3178 1 25.9606697655 32.7299880107 0.545539120883
2850 1 22.9535474574 32.5607662745 0.403188980183
3142 1 27.3215032011 30.7648829778 0.756448262482
3470 1 30.0016891619 30.7589821617 0.748834370374
3507 1 28.669179068 31.0875237707 2.80211757065
3506 2 28.6880274645 32.8402538048 0.590040622512
3798 1 32.8144402894 30.7789043209 0.80042018196
3834 1 31.4263239062 32.7742684002 0.555524262927
3835 1 31.4067305208 30.9899008742 2.79815288723
4163 1 34.1954005411 30.986356107 2.81575615742
4162 1 34.2354790443 32.7880826015 0.594437018436
4126 1 35.6115685905 30.77131618 0.829117113285
4490 1 37.0293073736 32.8030555994 0.629923362378
4491 1 37.0055918047 30.9960974851 2.83746718785
4454 1 38.4264050802 30.7996076466 0.871925323326
4782 1 41.2403064431 30.8388277691 0.905273571439
4819 1 39.8559732053 31.0246859092 2.86728980383
4818 1 39.8644564966 32.8291844589 0.656333125675
5111 1 44.0444453752 30.8357653597 0.857010921334
5147 1 42.7516861281 31.0956497235 2.88508191689
5146 1 42.6840061224 32.8196446332 0.693775020964
181 2 0.75051508484 36.4678200906 2.92742960878
554 1 2.76615544741 33.8428091955 1.29006842185
5102 1 0.176253896141 34.7153282503 1.73953377989
226 1 1.4286884586 33.3394024253 3.27591598982
509 1 4.40979796298 35.9968649925 1.81912307471
837 1 7.19925509092 36.1312614993 1.92038528352
882 1 5.84054181006 34.1177743197 1.68067957279
510 1 4.2820733011 33.6952117684 3.53907302448
1165 1 9.98751382759 36.1076127562 1.92584303868
1210 1 8.57332676511 34.1014606513 1.69284411546
1538 1 11.3825804889 34.1029917578 1.70302052714
1493 1 12.7821441602 36.1113095229 1.9369234659
1866 1 14.1887280766 34.1019694078 1.71209570406
1821 1 15.5716423336 36.1095685083 1.9560764004
2149 1 18.1475477946 36.1735247857 1.97607410026
2194 1 16.9911990026 34.0761407491 1.71821473589
2522 1 19.5733231875 34.3593430601 1.75095107125
2913 1 21.4792468845 34.7844997256 0.137089696902
2706 1 23.2408809901 36.5446025433 1.05838853681
2842 1 24.3059445286 34.4157442402 0.148190634292
3170 1 25.6801718992 35.0832055341 2.24505415618
2798 2 23.1907599869 34.5983876179 2.13492331557
3462 1 30.086902233 33.0352534968 2.56147151744
3134 1 27.2833616412 33.138796953 2.55909791672
3133 1 27.25904698 34.7630702629 0.372095692232
3461 1 30.0739532959 34.8156036529 0.340979628981
3498 1 28.674790971 35.0557374333 2.35060346049
3790 1 32.821767482 33.0030057989 2.58943620489
3789 1 32.8431150767 34.7911008704 0.355067906701
3826 1 31.4660043271 35.0274293693 2.35613388822
4154 1 34.226094544 35.0274667088 2.3875060935
4118 1 35.6207649485 33.0118123541 2.62245717122
4117 1 35.6373233044 34.8069272875 0.386912946595
4482 1 37.0481936673 35.0187563639 2.39650008888
4774 1 41.3060626114 33.0363290596 2.69866395309
4446 1 38.4411628093 33.014907621 2.63923785608
4810 1 39.8753725849 35.0105212537 2.39103468129
4445 1 38.4699286685 34.8153535964 0.381147904933
4773 1 41.3076762425 34.8203930033 0.372014430336
5110 1 44.2422582416 33.0308866188 2.60730471462
5138 1 42.7340431861 34.9708767399 2.37680468637
5101 1 44.0920300971 34.7475644194 0.264741523484
40 1 3.0785316546 3.42257999705 4.41224370218
540 1 3.06563247249 0.944108027719 6.17958979663
174 2 0.676153641519 0.694475618581 6.39301701983
402 1 1.84575007569 3.05018991161 6.41551062682
406 1 1.71423808379 1.47609384326 4.33250887795
78 1 0.402784814117 3.53729368086 4.00546813233
407 1 4.50883551355 3.01084405863 6.29006115968
368 1 4.30821764615 1.20579782465 4.0941343794
692 1 7.1139533687 3.04569218943 6.34687333335
696 1 7.15005764661 1.26048674162 4.10430927646
735 1 5.76648579791 0.946018381282 6.09200279493
734 1 5.75833256494 3.2431009143 4.26832141535
1020 1 9.98920491972 3.0778612334 6.38653239999
1024 1 10.0088854843 1.32281404566 4.18284486629
1063 1 8.55654046211 1.06920792526 6.15426152076
1062 1 8.56980092867 3.29436861137 4.37237177171
1390 1 11.4045653313 3.32066840631 4.40248554287
1391 1 11.4184357922 1.13432288179 6.18304572623
1348 2 12.7713945053 3.31537479396 6.43514927637
1352 2 12.7658540745 1.25963260976 4.06553286002
1719 1 14.0735805225 1.15602115329 6.20337723208
1718 1 14.1527887876 3.3504619916 4.42378007809
1676 1 15.5086306796 3.13351327793 6.4463019287
1680 1 15.4983388061 1.35943142615 4.21317709793
2008 1 18.2383550268 1.42144172535 4.25687278379
2047 1 16.8658525264 1.15778488887 6.22374418263
2369 1 18.3325622584 3.12905755994 6.41304812391
2046 1 16.9162499736 3.39137799431 4.44471463312
2333 1 21.9817028275 1.23851066158 4.79662306206
2698 1 19.8193643527 1.14917858544 6.21608651596
2697 1 19.8233769889 3.26296584201 4.51776907678
2325 1 21.3423799553 2.98795931525 6.66182262322
2374 1 22.7193457329 0.756254002115 7.0387169505
2662 2 22.3783577485 3.47382006755 4.48357860636
2701 2 25.5099958696 3.1051987859 4.80869737541
3033 1 26.1649758452 0.805359909424 4.06718095761
2704 1 24.5644565139 1.15255292247 5.83874997451
3030 1 25.1614267364 3.44497111032 7.02053235935
2991 1 27.6403266177 2.84484414953 3.88294826033
2992 1 27.0692673183 1.85111781697 6.09964827852
3319 1 30.0906242316 2.75831780863 3.86896346165
3320 1 30.0120823159 0.942083628907 6.14976795938
3358 1 28.9483989634 3.08972087594 5.99596919135
3361 1 28.6850004857 0.741389944293 4.1165522721
3647 1 32.8338306918 2.71966059529 3.92856352118
3648 1 32.8469522923 0.893893673478 6.18183026779
3686 1 31.4846344309 2.90930035387 5.96646446316
3689 1 31.4448667297 0.733005139198 4.15486791331
4017 1 34.2375388036 0.688992819422 4.17585121851
4014 1 34.2550778494 2.90223342419 5.96689955357
3975 1 35.6477118019 2.68597387367 3.96472888604
3976 1 35.6697149125 0.88801415588 6.19277129218
4342 1 37.0523224623 2.89715317569 5.96275528156
4345 1 37.0564918866 0.671752691909 4.18189422248
4631 1 41.2647782389 2.60819957222 3.99506533944
4303 1 38.4650643977 2.68020428749 3.9779493009
4304 1 38.4480538305 0.879328209154 6.18883066898
4632 1 41.2054049597 0.943909815919 6.23893974784
4670 1 39.8249528625 2.9019513812 5.98535691849
4673 1 39.860343868 0.657563623162 4.19980304033
218 1 45.1203042539 0.836807713659 4.45998674002
79 1 45.2261269234 2.89002185739 6.058263466
4959 1 43.8340218694 2.69089213314 4.02327987055
4998 1 42.5895388263 3.07478519275 6.03239708955
5001 1 42.7150193011 0.520113924774 4.28492548985
37 1 43.7041135336 1.03607259512 6.41915095877
401 1 1.23758182072 5.23811486914 5.3862484936
30 2 3.21585237191 5.13389900012 6.39493119406
393 1 1.40880823601 6.98855017149 7.14496094989
400 1 2.93719692112 7.21052385659 4.91824587519
363 1 4.52662915814 5.32573170763 4.54523724541
691 1 7.1510516842 5.28505332365 4.59635366471
729 1 5.77019358063 5.10058524071 6.63323645604
685 1 7.19473902909 7.08115556052 6.8440881325
357 1 4.31452857847 7.10744308715 6.91168015678
1019 1 9.99981640676 5.31024594635 4.6091998783
1057 1 8.56014861913 5.05837000657 6.61127745707
1013 1 9.99565824307 7.08789346034 6.82711367632
1385 1 11.3628981239 5.12925606401 6.62740747977
1056 1 8.60713180735 7.28954532628 4.81835693768
1347 1 12.7967620451 5.35737582777 4.63697937912
1713 1 14.2014756615 5.17161162987 6.66066450451
1341 1 12.7927094194 7.152652931 6.83059610397
1675 1 15.5677487165 5.38457336665 4.65473539139
2041 1 16.9580845008 5.12614539767 6.66523592963
2003 1 18.4321515255 5.32800957725 4.71931646057
1669 1 15.6048452356 7.15454626246 6.84636503204
2361 1 18.4225256262 7.12216021292 6.82875792907