ITEM: TIMESTEP
24000
ITEM: NUMBER OF ATOMS
5248
ITEM: BOX BOUNDS pp pp pp
0.0 45.68
0.0 36.5618393957
0.0 36.5618393957
ITEM: ATOMS id type x y z
409 2 3.2978590656 1.05869779198 2.26894923709
39 1 1.95270404269 2.90347412534 1.90261282868
181 1 1.15623725209 0.326185380402 2.06580220141
697 1 7.16856320127 1.69245884165 0.131239200603
737 1 5.74890413557 1.42549877242 2.10957853225
695 1 7.13183922714 3.45379494167 2.33753468678
367 1 4.33816718964 3.4511743411 2.26491653474
369 1 4.21421548083 1.73633066299 0.147020789825
1025 1 10.0066800547 1.70228833528 0.145638494171
1065 1 8.57156814984 1.45591434831 2.13320686551
1023 1 9.96308037475 3.46754467151 2.38132581932
1393 1 11.3925474307 1.4788874256 2.15320752667
1353 1 12.7960117771 1.72473325778 0.154658516439
1721 1 14.1908281244 1.51357543619 2.14599021788
1351 1 12.7809678253 3.50430819526 2.38894235755
1681 1 15.6004149145 1.74928425133 0.142969185869
2049 1 16.9563633689 1.54175266991 2.12570700563
2009 1 18.381910973 1.79383275647 0.112498175795
1679 1 15.5838996596 3.54305916448 2.38673815785
2007 1 18.3219627052 3.57351957294 2.3725129069
2377 2 19.579816197 1.67889707621 2.0157132672
2477 1 21.3869704899 0.0132626782663 2.40559741226
2337 1 21.342768977 1.91265298567 0.300843017367
2706 1 22.7713325792 0.0151438125231 0.306556147631
2335 1 21.0844837239 3.56854536621 2.34375226802
2336 1 23.0685176364 2.20101993328 2.11101046942
3032 1 25.924067075 2.31958847269 2.01936448565
2665 1 24.3318712078 0.31064093685 2.25717420219
3034 1 25.732245199 0.204731376314 0.210332797607
2731 1 24.3274109555 2.10197248804 0.0650705740658
3360 2 28.6312081155 2.50773688972 1.67168021911
3321 1 29.9975121584 0.514505243517 2.09646012086
2993 1 27.3064246232 0.457755495448 2.06936146542
3362 1 28.6024326759 0.288764174791 0.0665105922676
3649 1 32.8070834093 0.54503938025 2.12520129566
3688 1 31.353230365 2.53528231764 1.91613889303
3690 1 31.4028245191 0.300757499198 0.119455737878
4016 1 34.2231780795 2.54294781417 1.91913016396
4018 1 34.2130386054 0.318584788109 0.120655314085
3977 1 35.6417769466 0.542384898376 2.12913953076
4344 1 37.0453994059 2.55908808019 1.91847977141
4346 1 37.0235789818 0.323218823416 0.111487408623
4305 1 38.443058156 0.549554349858 2.11151164014
4672 1 39.834351647 2.57815655842 1.89875772078
4633 1 41.1988632827 0.544463527953 2.07313464232
4674 1 39.8248123998 0.314291996043 0.0731044446327
81 1 45.3470557614 2.27699357156 1.83751587618
5000 1 42.626446363 2.54853956643 1.79723848659
4961 1 43.9240300035 0.46648224146 2.03610647435
5002 1 42.5700804409 0.237825135194 0.0380746214923
408 1 2.84513363717 3.8805188351 0.080324264946
36 1 2.74785372906 5.36891892791 2.65395385816
77 2 0.250490475164 5.72283903903 3.18054470401
35 1 1.25231760278 5.58070278593 0.722598354886
736 1 5.71561579369 3.66453220955 0.321396319358
366 1 4.26154807959 5.64434793566 0.621574968629
694 1 7.1476031406 5.65807647677 0.572754703086
733 1 5.73150638644 5.47688908095 2.57736723008
1064 1 8.57939797711 3.68656039557 0.358075017511
1022 1 9.98452519868 5.70372758407 0.600074376877
1061 1 8.54268493279 5.4561921929 2.57966571226
1389 1 11.3578100254 5.47418918629 2.62560281687
1392 1 11.3871107226 3.7117514241 0.381104297646
1720 1 14.1858367757 3.74429295563 0.386441455126
1350 1 12.7683437676 5.73330191743 0.627740064345
1717 1 14.1660051303 5.52438461091 2.62663510595
1678 1 15.576218626 5.77766111041 0.634943976208
2006 1 18.4153770351 5.76387919363 0.644249208767
2045 1 17.0018198013 5.55344368054 2.63161160693
2048 1 16.9624283214 3.78885043139 0.367024271283
2376 1 19.8279629883 3.83064743029 0.382053053096
2373 1 19.7832258954 5.48050888448 2.66858300479
2387 1 21.3863653156 5.83044273062 0.718858440525
2767 1 22.7744825665 3.93474481521 0.274371241345
2722 2 23.2360738284 6.89603993005 2.22878187132
2663 2 24.6614531867 4.12289268594 1.74819434823
3028 1 25.7980847287 6.50640012564 1.75721519572
3029 1 22.9375710345 4.82371944826 3.13798475738
3087 1 24.2428948108 6.18804632534 0.0615509015144
2986 1 27.2498495162 4.49033681061 1.73520038862
3318 1 30.0034407486 4.5495656158 1.69495110843
3356 1 28.5682322904 6.5540673552 1.56542077255
3023 1 27.1945564582 6.8324495916 3.61244912488
3314 1 30.0528713279 6.84212956109 3.51384008208
3646 1 32.7949462484 4.53336310893 1.71612219851
3684 1 31.4066479158 6.55434086437 1.49995686103
3642 1 32.8113280949 6.75852485276 3.50097301947
4012 1 34.2067445311 6.54315607197 1.49926223276
3970 1 35.6391754717 6.76621936475 3.49872249479
3974 1 35.6347074653 4.55252200694 1.72284343493
4340 1 36.9971621865 6.56082985633 1.48414605247
4298 2 38.4276460454 6.88855971218 3.39871926252
4302 1 38.426139558 4.57403971963 1.72117693359
4630 1 41.2367917025 4.57587552991 1.7382660757
4668 1 39.8207673745 6.58495619978 1.51900169253
4626 1 41.2189435773 6.89279183128 3.51419833237
4958 1 44.258662404 4.68803179037 2.03569574393
4996 1 42.5798766947 6.6251672159 1.5968165503
4954 1 44.1637022749 7.10371202309 3.3500906353
80 1 45.5589961064 3.816212767 0.0147003694307
70 1 1.53748821728 7.48312664238 3.03995726897
404 1 2.82626084728 7.553474251 0.794669155349
38 1 1.45338186381 9.4518370218 1.11471608224
392 1 2.87542313643 9.46165724008 3.11819859747
135 2 0.240052388822 7.54813004274 0.155573412569
362 1 4.2261624063 7.39736266769 2.86756086311
361 1 4.32936141328 9.52941926032 1.06390037113
689 1 7.16704458549 9.64011781702 1.05186360468
690 1 7.17057484266 7.46952547767 2.82553277381
727 1 5.73752438751 9.40970811154 3.08002796413
732 1 5.72388628711 7.61603130929 0.823231804563
1017 1 9.93615812633 9.68900067013 1.00868029138
1018 1 9.94245298775 7.45153675024 2.81777897614
1055 1 8.63681414264 9.47929076034 3.07051826328
1060 1 8.56524450361 7.67290796419 0.809014842815
1383 2 11.344349079 9.37985473301 2.92488871502
1388 1 11.38363634 7.73116718453 0.842795797597
1345 1 12.7532467047 9.76956632224 1.05472181201
1346 1 12.7279871492 7.4807317943 2.88561668368
1711 1 14.0534094642 9.46864183125 3.11460382954
1716 1 14.1346087548 7.75349137409 0.862500380716
2002 1 18.4507796467 7.52040560239 2.87851659411
1673 1 15.5616297311 9.69923074359 1.09956239202
1674 1 15.5755076419 7.53331829103 2.82074394207
2039 1 16.9822808548 9.47821033427 3.09044545686
2044 1 17.021339118 7.7710277356 0.871560816099
2001 1 18.4615500546 9.78849731442 1.11826951742
2759 1 21.1476771877 7.34495608049 2.86721642119
2334 1 19.8282485491 7.73414689418 0.82231898537
2367 1 19.8708371165 9.47534204409 3.11533065302
2372 1 22.6156289948 8.06043519845 0.469136270187
2329 1 21.0761325251 9.73293666365 1.03607151156
2688 2 21.6733052629 10.9334619559 3.16528603305
2323 1 22.8897464453 9.00342974366 3.25045552775
2421 1 23.1580841955 10.6151807039 1.10358075778
2059 1 24.6334311325 8.68461653538 1.64369239868
2657 1 25.9184308296 8.96621332469 3.52951718947
3022 1 25.923325539 10.6702504802 1.24557758972
2643 1 24.3913548215 10.8553100885 3.17878731999
2979 1 27.2571588379 10.8995436845 3.2210350284
2985 1 27.163540188 8.55044909422 1.38835858699
3307 1 30.0257174311 10.8067739528 3.06435044452
3313 1 29.9573025666 8.55195785566 1.28967526705
3350 1 28.5472745632 10.5497220888 1.07370620001
3351 1 28.6071105524 8.83148852888 3.3541237911
3635 1 32.8298120066 10.7938488508 3.05669835323
3641 1 32.7957763321 8.55070518897 1.26306011032
3678 1 31.3892292424 10.5447785477 1.04748793256
3679 1 31.4330695312 8.80138863808 3.27690321717
4007 1 34.2141088802 8.76356126072 3.27884630417
4006 1 34.1920338628 10.5582397681 1.04300062561
3963 1 35.5979678179 10.7752278089 3.06415378536
3969 1 35.5950108771 8.55707679723 1.27423829482
4334 1 36.9914445978 10.5690523673 1.0684963697
4335 1 36.994341655 8.79626265116 3.28903434884
4291 1 38.3938820982 10.7874413146 3.09851838373
4297 1 38.4033431716 8.5820676942 1.30992814609
4619 1 41.2608727638 10.8703484093 3.1356221116
4625 1 41.2150011887 8.63352137894 1.38639767429
4662 1 39.7857992357 10.6067561113 1.1201133445
4663 1 39.84219249 8.85909239413 3.32487067801
33 1 45.6774065049 9.33915561908 3.27253386176
71 1 44.2278301824 8.77343427183 1.15008011349
4953 1 42.5970649181 10.6633613078 1.10268360061
4991 1 42.7303905392 8.9449374914 3.25977294349
398 1 2.93675024148 11.4409527762 1.39021493182
399 1 1.35823120403 11.4381080949 3.27462997442
391 1 3.06260269086 13.3826374664 3.50254504182
453 1 1.60477968736 13.3484212435 1.24986908685
354 1 4.39210235364 13.5380423161 1.4591243041
355 1 4.36375124376 11.3971136554 3.32236583483
682 1 7.12682701986 13.6659916024 1.44392668393
683 1 7.19629625257 11.4263804593 3.27612416818
726 1 5.76148000414 11.596205864 1.26440088811
719 1 5.80045414412 13.4113595898 3.51485343657
1010 1 9.92504338335 13.7100195637 1.42244316037
1011 1 10.0588485437 11.4832877183 3.23331655168
1054 1 8.56112934034 11.6808462986 1.24867500913
1047 1 8.59669786825 13.447391688 3.44451729804
1382 2 11.1839291657 11.7494904256 0.988456523263
1375 2 11.3383101418 13.691259109 3.44942474288
1338 1 12.7200335348 13.6426033627 1.44251433028
1339 1 12.6222816212 11.4513662538 3.21336133886
1710 2 14.2811341435 11.7047481518 1.24792521365
1703 1 14.057873579 13.409042158 3.4456177013
1666 1 15.518433493 13.7049817478 1.48782063942
1667 1 15.4836533015 11.424932757 3.3024926274
1994 1 18.2426491345 13.7126516078 1.55230819847
1995 1 16.9497197983 11.6974860765 1.29458362838
2366 1 18.2542001715 11.4612530733 3.30152067933
2031 1 16.8382644147 13.4295807642 3.50760697997
2359 1 19.914656923 11.8630106712 1.51895307832
2381 1 22.7425845739 14.3533351034 0.515301731385
2694 1 22.7012104148 12.7995324293 2.3102467571
2679 2 19.5606600736 13.5101042972 3.50896764204
2642 1 25.7971276847 12.8167415097 2.81549200939
2382 1 24.4023441839 12.5995089576 0.701977724432
3014 1 25.818602537 14.5119800935 0.700046682689
2978 1 27.309804023 12.6222853416 0.915566231989
3306 1 30.0160740728 12.5400630208 0.840732910074
3343 1 28.6675162961 12.8566323734 2.86981509332
3342 1 28.677874076 14.5621283477 0.671990712141
3634 1 32.8054577672 12.5614899178 0.834351110723
3670 1 31.4184218087 14.5652965376 0.621309651645
3671 1 31.4363915318 12.8041824156 2.84823146082
3999 1 34.2330442094 12.8054229531 2.84049193256
3998 1 34.2179988469 14.5795350387 0.61655337225
3962 1 35.5944851179 12.5733632212 0.820470173093
4327 1 36.9676713164 12.7633350857 2.85118295072
4326 1 36.9802138095 14.5946720641 0.590435124113
4290 1 38.3620692572 12.5874635704 0.832890705261
4618 1 41.1073029293 12.6530513025 0.870310722292
4655 1 39.7665044789 12.7688862843 2.86478938468
4282 2 38.3438587698 14.6115547391 2.6215196883
129 1 45.5385658076 11.1327968964 1.06822720437
63 2 45.207499204 13.0628606275 2.52040738698
4946 1 44.0731578827 10.9699900077 3.00888633931
4938 1 42.5374158015 12.9253108449 2.8257449317
4990 1 43.8272360557 12.7724802793 0.757764748092
390 1 1.18794557637 14.7826590158 3.15628197113
83 2 0.825795199144 16.9621645107 0.261504211779
26 2 3.14003060182 15.3677942503 1.73172992886
345 1 4.24347449956 17.6493810064 1.94106589218
673 1 7.14369391447 17.6846306709 1.89186281036
718 1 5.72777209776 15.6700266594 1.65384455497
1001 1 9.98096247483 17.7163028296 1.87410731108
1046 1 8.53953041268 15.6975155505 1.63065435652
1374 1 11.3623493444 15.692127559 1.65360974189
1002 1 9.93509348049 15.5193896139 3.64715121134
1329 1 12.7402140113 17.7273874645 1.88740794355
1702 1 14.0907803753 15.6839715859 1.66071791985
1657 1 15.468072192 17.7379596105 1.87064703005
2030 1 16.8548593547 15.7308619756 1.67084026366
1985 1 18.278459738 17.761578498 1.84216097552
2869 1 19.6239288961 15.7325646125 1.8017943217
2635 1 21.5055100383 15.2943005449 3.07977381606
2313 1 21.073250261 17.7865019487 1.9949883985
2870 1 21.2994323243 16.0831536548 0.118964557555
2866 1 24.3148744985 14.7846936452 2.5862454237
2678 1 23.1629295964 16.7824339192 2.17839508485
3006 1 25.8528518244 16.9285706024 2.11451857463
2641 1 24.2758574997 16.2558063954 0.151171815745
2970 1 27.1366942377 14.8716242531 2.71113732461
3298 1 30.0528076797 14.8342835138 2.64985726355
3297 1 30.0365565768 16.5789101586 0.392386790183
3334 1 28.6111102463 16.7990102698 2.36747586846
2969 1 27.2767600228 16.3766008019 0.246953894511
3626 1 32.8383251354 14.8087008822 2.62594720807
3625 1 32.8268749691 16.5780406449 0.391904922487
3662 1 31.4467279013 16.817918814 2.40239969212
3990 1 34.2435150389 16.8117550141 2.40258328378
3954 1 35.6482790942 14.8175683723 2.61835300136
3953 1 35.6212276578 16.5960456953 0.395485288211
4318 1 37.043602205 16.8044001582 2.3841364614
4654 1 39.6633076626 14.6310348706 0.555348820571
4610 1 40.9994362924 14.8367912358 2.49776666011
4646 1 39.5891795345 16.8126807806 2.31125870998
4609 1 41.0155444005 16.6612502696 0.307981520008
4281 2 38.3082313268 16.6921379313 0.22338345822
4982 1 42.4252807398 14.6991753457 0.487965754911
125 1 45.3832231049 14.7277909785 0.526268384727
27 1 43.8619037392 14.9418296301 2.36988496525
62 1 45.3167878231 16.8088565378 2.31884485303
4974 1 42.3950691941 16.8388201865 2.26527794081
4937 1 43.8774932701 16.6608062574 0.307648200681
17 1 1.0248081333 18.7316059846 2.01823921938
573 1 3.12083156155 19.8090522384 1.95706836946
244 1 1.69871964076 21.6367491309 2.36493848527
205 2 1.15277125385 20.3688440512 0.143074165625
572 1 3.03611022507 21.9122537385 0.319550967611
861 1 7.15148165411 19.9123964792 0.0959992031452
901 1 5.76119372055 19.6558275162 2.16404826804
859 1 7.18364011364 21.7079305106 2.35330925299
531 1 4.46547700239 21.7192715693 2.37710324466
1189 1 9.99376593726 19.9297626817 0.129153994521
1229 1 8.57321756679 19.710343252 2.13505295212
1187 1 10.016460058 21.7385225041 2.33547819054
1557 1 11.380440437 19.737799068 2.10814930592
1517 1 12.7740761548 19.9701987348 0.0943564968995
1885 1 14.1295791265 19.7508790067 2.0928112652
1515 2 12.7885983678 21.8005019427 2.11206122075
2213 1 16.8990991829 19.7506279694 2.06831274906
1845 1 15.5514529147 19.9634754062 0.0980332387595
1843 1 15.5483488557 21.7333385802 2.38046929108
2173 1 18.4574975518 20.0038574897 0.1621622483
2171 1 18.3497413332 21.7095288523 2.2969095719
2828 1 19.9807943581 19.9452493937 2.125672963
2541 1 21.4079193165 20.0971789961 0.235306200551
2500 2 24.4271980196 18.8556014603 2.56886226749
2868 1 23.1186865028 20.6706472315 2.03296364603
3196 1 25.9071271184 20.785027106 2.12583714289
2895 2 24.4909274361 20.8503781265 0.0464946046211
3157 2 27.5029756474 18.9185223442 2.40164663027
3485 1 30.0550607584 18.8064235766 2.18679406856
3524 1 28.7047346781 20.8310464817 1.96979800235
3526 1 28.5809776507 18.5074680077 0.168483540335
3223 1 27.151725849 20.4060310074 0.0403776280424
3854 1 31.4407455559 18.5776639152 0.172440008701
3813 1 32.844743968 18.8224888798 2.18592473579
3852 1 31.4617718112 20.8273268371 1.95279269278
4182 1 34.2191872971 18.5987965404 0.163252141347
4180 1 34.2296382167 20.8341874217 1.95019945792
4510 1 36.9547727229 18.6448473702 0.145008064475
4141 1 35.6261238043 18.8187559757 2.17094882626
4508 1 36.9653352423 20.8850033113 1.93613316494
4797 1 41.0142464481 18.8208133447 2.07627702144
4469 1 38.3398686976 18.8878519461 2.15318740676
4836 1 39.7166522101 20.8883872919 1.8870602669
4838 1 39.6765679353 18.67929085 0.0935331095567
245 1 45.2008725775 20.7401478716 2.0015535343
5125 1 43.8037633366 18.7988157005 2.09005577177
5164 1 42.4424109951 20.8207694857 1.8854431412
5166 1 42.475810301 18.6433447967 0.0740383077746
246 1 45.1662889422 18.7042851703 0.0626670619585
569 1 3.05175117619 23.6602319955 2.70402390026
627 1 1.7585315013 23.933801736 0.797775294902
198 1 1.44185548731 25.4049212284 2.95419726325
5122 1 0.0384450707312 23.2662097999 2.94564434679
900 1 5.82479087082 21.9492027907 0.302754321887
530 1 4.44345106701 23.8877476791 0.604236085355
858 1 7.21288266756 23.9402848831 0.553891719091
897 1 5.82445732833 23.7382578073 2.61248779062
1228 1 8.58564900647 21.9326225183 0.320787109441
1186 1 10.0061342492 23.974505816 0.573190999144
1225 1 8.60870673116 23.7261791364 2.57771644085
1556 1 11.3774739159 21.9749132228 0.301315170815
1553 1 11.4260652883 23.7529276858 2.57304304095
1884 1 14.2269588915 21.984201458 0.306975548557
1514 1 12.8274049917 23.9852978713 0.576492306496
1881 1 14.1964276743 23.7553242948 2.58813167601
2212 1 16.9737976633 21.962587283 0.347994194241
1842 1 15.6084329071 23.9949382012 0.601165545791
2170 1 18.3995466448 23.9581149054 0.590218096937
2209 1 16.960908791 23.7016076361 2.59648488544
2540 1 19.9377999196 22.0345841505 0.323565060693
2495 1 19.6693983301 23.6757370022 2.59601025601
2537 1 21.291985767 24.195650011 0.356899304532
2494 1 21.5150445776 22.3715741989 2.11638148415
2531 1 21.5251359519 25.1028628111 3.19504057475
2923 1 23.2610933116 24.5806246898 1.58537411077
2826 1 24.5346428909 22.6739543236 1.77365113702
3192 1 25.8919988207 24.7455140937 1.52618692432
2859 1 24.5018373264 25.068078544 3.54436975085
3154 1 27.3045853724 22.7685429799 1.73133409711
3478 1 30.0977789848 25.0625524213 3.4488863472
3482 1 30.1052019928 22.8223754187 1.681406903
3520 1 28.6843012165 24.8005756967 1.47384737943
3150 1 27.2898528575 25.0278426632 3.47426912081
3806 1 32.8385054157 25.0903457255 3.48266097877
3810 1 32.8758252323 22.8363787956 1.6726750703
3848 1 31.5021441379 24.8425460422 1.44344477107
4176 2 34.2367649642 24.8938303579 1.65922922338
4134 1 35.6525577042 25.1003196042 3.52373867387
4138 1 35.5750909182 22.8741997786 1.7011349743
4504 1 36.9602549436 24.8923330536 1.45636215799
4462 1 38.4128455311 25.1175683132 3.46130538043
4466 1 38.3497436819 22.9071227591 1.68705809099
4790 1 41.2324053534 25.1456036734 3.39562211605
4794 1 41.1441111762 22.9040397356 1.62983161609
4832 1 39.7948471789 24.9169822377 1.43165545059
4833 1 39.7707181747 23.1162128469 3.65605386787
242 1 45.2357910719 24.9002233291 1.25374654848
5160 1 42.6264170198 24.9451466999 1.3613184659
5161 1 43.7824107271 22.8377438658 1.6678146229
5118 1 44.0823794964 25.1225174366 3.29964245302
5158 1 42.5106415803 23.1071728188 3.59215835806
5190 1 45.5394765841 22.4095174621 0.236779826137
568 1 3.1526554657 25.8584654169 0.877653844815
563 1 2.85105087126 27.6416934229 2.81273009684
197 2 0.984371385861 26.7570777922 1.11892468923
526 1 4.38967749562 25.726627601 2.85500019148
525 2 4.53277478897 27.7438636218 0.952176476833
853 1 7.18874235069 27.9857367067 1.01955665028
854 1 7.23382260122 25.734406029 2.80952608653
891 1 5.81043302311 27.7047980355 3.01087533654
896 1 5.85550462217 25.8980585321 0.813551277776
1181 1 10.0364593562 27.9817245186 1.01067753037
1182 1 10.0318610542 25.7383939802 2.79010337787
1219 1 8.619577102 27.7445064477 3.00444172146
1224 1 8.60337761265 25.9774717587 0.79463151676
1552 1 11.4402583028 25.9825155994 0.797588150435
1547 1 11.4513560075 27.7569274531 3.01127073645
1509 1 12.8597026711 28.0096264783 1.01814159645
1510 1 12.8412994688 25.7573248009 2.80670964117
1875 1 14.2669585052 27.7792476786 3.023830937
1880 1 14.2398056681 26.007903023 0.81149627305
2166 1 18.3979611017 25.6637974861 2.92099466873
1837 1 15.7020415534 28.0354835149 1.06302709644
1838 1 15.6184033287 25.7613477447 2.79846118795
2165 1 18.4750901301 28.051098451 1.14290443273
2203 1 17.1492052479 27.7870994434 3.08588278431
2208 1 17.0612266932 26.0104116374 0.86241986507
2536 1 19.7107101085 25.9844708716 0.957481174662
2589 1 20.0361474841 27.2762423042 3.23064575349
2814 1 20.9989518257 28.5662484169 1.40452119964
2551 2 21.8949695406 26.4115265688 1.41141822057
2487 1 22.9177388881 27.1991299688 3.2694943497
3186 1 25.8622146116 28.7306487099 0.955934375217
3251 1 24.4874110974 26.7455939216 1.33164207488
2488 1 24.5261897207 28.9744819051 2.97259323964
3187 1 25.8719967118 27.0270488778 3.28333106287
2851 1 23.2427560633 28.8019752445 0.846034298886
3149 1 27.2592238954 26.7753745796 1.2494145035
3471 1 30.0242934009 29.0871208213 2.99865897236
3477 1 30.0551640519 26.8299883125 1.22477385894
3514 1 28.6040625613 28.8250044865 0.98278482683
3515 1 28.6598030211 27.0677729559 3.23767839655
3143 1 27.2316856371 29.0537307867 2.99582165374
3799 1 32.8337252703 29.0904214971 3.00524019588
3805 1 32.8507330552 26.8627558302 1.21555054508
3842 1 31.421206355 28.848286719 0.995803484595
3843 1 31.4527408495 27.0953070353 3.22335798206
4171 1 34.2410715218 27.0922759053 3.24087959259
4170 1 34.2186930972 28.8679538322 0.99817325456
4127 1 35.6318857054 29.0901924064 3.01861229784
4133 1 35.6076294792 26.8833233438 1.2254621621
4498 1 37.0226394035 28.8746339475 1.01648106755
4499 1 37.0341613482 27.1079470617 3.25027908961
4455 1 38.463907547 29.101649299 3.04230712065
4461 1 38.4142102109 26.8967696306 1.22782250839
4789 1 41.2480476553 26.9385679725 1.22489218812
4826 1 39.8594564536 28.9061595516 1.03388217313
4827 1 39.8591007281 27.1241944537 3.24440367778
4783 1 41.3045161417 29.0957409693 3.06801721692
289 1 45.6347755905 29.051352852 0.991027372158
241 1 45.5662433319 27.2441372607 3.10158001988
240 1 44.0901156169 27.0096969607 1.13745047542
5154 1 42.6979090602 28.9691766897 1.06817959186
5155 1 42.7428257542 27.1510002908 3.18590695288
235 1 44.2025723377 29.1979183178 3.04359093206
191 2 1.27685489869 29.4300229023 3.16040116832
293 1 3.23814974778 29.8120458445 1.38694844412
227 1 1.46963473702 31.5412010995 1.27567567079
555 1 2.93598694263 31.5410746641 3.19840667124
518 1 4.15918611481 32.2828801147 1.14217123113
519 2 4.53495159865 29.6676430374 3.44009083723
846 1 7.2448477189 31.9767353951 1.48186725112
847 1 7.19749903422 29.7302598303 3.23499957945
890 1 5.75964967423 30.005904335 1.28157805529
883 1 5.73013473867 31.7320846901 3.34113224427
1174 1 10.0379456571 31.9997598058 1.44468822701
1175 1 10.0463487737 29.7534696879 3.22700831287
1218 1 8.6219664949 29.9742379934 1.25016714508
1211 1 8.63319012241 31.7409937924 3.4467974179
1546 1 11.4497725267 30.0016410767 1.2280682458
1539 1 11.4439985553 31.7778325181 3.44020174824
1502 1 12.8555743232 32.018802238 1.44611498146
1503 1 12.8622785381 29.7778077362 3.22349618524
1874 1 14.2852667014 30.0291777266 1.23841407266
1867 1 14.271133779 31.7854526779 3.43943126558
1830 1 15.6900172376 32.0555516736 1.44634216312
1831 1 15.7191778608 29.7816296674 3.23543725687
2158 1 18.4428857402 32.1864196635 1.47088305467
2202 1 17.1218149165 30.0864557222 1.28491177935
2159 1 18.7353646724 29.7249356112 3.22841839661
2195 1 17.1162604778 31.7706690434 3.45951234485
2530 2 19.6459798855 30.257318398 0.967973387272
2486 1 21.1644174626 32.1438363941 1.57529791608
2703 1 22.0766175401 32.8038632407 3.64288103995
2523 2 19.7311590954 32.2069392918 3.54806832925
2806 1 22.8525558546 30.632633809 2.64224879914
2815 1 25.8145526874 31.0320401019 2.88947539407
3179 1 24.6104245302 30.7815728619 0.845357342485
2850 1 22.9054849675 32.5837498701 0.210492690178
2836 1 24.1967305507 32.7149375807 2.33615390569
3178 1 25.8464573184 32.8697809151 0.5357568119
3142 1 27.1664217585 30.8187068675 0.767321017418
3470 1 29.9633797368 30.8451901486 0.765050167882
3507 1 28.5690202154 31.0733031044 2.82400441588
3506 1 28.5558499596 32.8345125429 0.524898050832
3798 1 32.8031744924 30.864295261 0.77236248042
3835 1 31.4106022746 31.0858090586 2.78356127055
3834 1 31.3857375366 32.8529275667 0.530055049568
4162 1 34.2141388067 32.8704539634 0.552080159128
4163 1 34.2215010107 31.0940039629 2.7800056364
4126 1 35.6192216043 30.8713333521 0.780624207338
4491 1 37.0390584755 31.0849006977 2.78571449957
4490 1 37.0243753013 32.8749173714 0.572749158463
4454 1 38.4528157901 30.8774421599 0.79956314448
4782 1 41.2555512672 30.9081941059 0.795180146219
4819 1 39.9067391393 31.0736085928 2.82609833107
4818 1 39.8404514658 32.8728145796 0.580997744897
234 1 45.5605833218 31.2589686362 3.05378801091
5111 1 44.1468133713 31.0120140786 0.95537765112
5147 2 42.6980545762 31.0140766489 2.76471887241
82 2 0.803423970769 35.2963656359 0.327067031559
554 1 2.53578206156 34.1919330415 1.72541356621
226 1 1.24914184332 33.2382244501 3.30452283805
509 1 4.46900859809 35.8139622698 1.85711558932
837 1 7.17873854079 36.0007684201 1.88841574831
882 1 5.85114348768 33.9291052887 1.64342964582
510 1 4.25617897146 33.6655292483 3.51793865061
838 1 7.20039605837 33.7101805465 3.65771184096
1165 1 10.0060858218 36.0235445478 1.91524044066
1210 1 8.62933033611 34.0083960405 1.67131813047
1538 1 11.4325481739 34.021094443 1.67537842614
1493 1 12.8102705661 36.042886202 1.92438054703
1866 1 14.2284930227 34.0396410874 1.69198797228
1821 1 15.5966254809 36.0797593872 1.91119353081
2149 1 18.3972636017 36.1168417341 1.93328559243
2194 1 17.0108093444 34.1113471954 1.67224861657
2522 1 19.9185551966 34.2177429818 1.88331732699
2798 1 22.6405902455 34.5593833926 2.0577711403
2378 1 19.94683352 36.41971962 0.114605377292
3170 1 25.7706799436 34.9543429633 2.2372301624
2842 1 24.2731816575 34.6928726966 0.273261833376
3462 1 30.0018682247 33.0659166332 2.5379654402
3134 1 27.1605800312 33.0283941343 2.58268226361
3133 1 27.2042255354 34.8585057682 0.287004527233
3461 1 29.9806323016 34.8484069754 0.309041811407
3498 1 28.5949962776 35.0327482225 2.32118455374
3790 1 32.8209442073 33.0916509938 2.55234128238
3789 1 32.8115840894 34.8638958623 0.319337768841
3826 1 31.4162050516 35.0866841719 2.30267982323
4154 1 34.2286280943 35.101812211 2.34416969822
4118 1 35.6356187943 33.0960811701 2.57308262422
4117 1 35.6200103208 34.8790860254 0.339719385031
4482 1 37.0506401191 35.0937116456 2.35206693862
4774 1 41.218355101 33.0651819716 2.59084176035
4446 1 38.4566873705 33.0735288115 2.57912125334
4810 1 39.8206406093 35.0888110417 2.32320562678
4445 1 38.4233542199 34.8767018534 0.324065427167
4773 1 41.2078434095 34.8507485786 0.303326561459
5146 1 42.663774563 32.9165621846 0.688711975989
247 1 45.3748368007 35.0180343294 2.31718211032
190 1 45.5188084937 33.0634061496 0.795744625509
5110 1 44.0856411167 33.1187850305 2.82857238274
5138 1 42.569745878 35.045021249 2.30468276895
5101 1 44.0294778984 34.8867711327 0.289720761686
78 1 0.556781322734 3.50814416185 3.72927947717
40 2 3.00379512655 3.49752361815 4.1513679153
540 1 3.23729448818 0.850241067304 6.31890343638
174 1 0.733037253464 0.890345579056 6.26130156834
402 1 2.03034239697 3.08475347701 6.20852056082
406 1 1.85590197117 1.37416385212 4.2885378599
407 1 4.47089637303 3.04644546509 6.31331831286
368 1 4.43087152896 1.22283477529 4.21868011088
692 1 7.116907279 3.03002751823 6.37950650881
696 1 7.13011223752 1.2149054783 4.1080545133
735 1 5.84683535101 0.954807794601 6.13495533767
734 1 5.73541164166 3.28046435499 4.32190145931
1020 1 9.9611664095 3.04247549461 6.37872001024
1024 1 9.965321644 1.23328437079 4.14375323483
1063 1 8.54872859278 1.01145691845 6.14026259156
1062 1 8.51970736175 3.21569691632 4.37006820955
1390 1 11.3771426482 3.23898614013 4.38083584163
1391 1 11.3842379039 1.03518592689 6.13519843796
1348 1 12.7869647979 3.06289097113 6.37468586733
1352 1 12.8013082847 1.25560604267 4.14871177691
1719 1 14.2078717912 1.05038115771 6.14503542017
1718 1 14.1827047527 3.29265334837 4.38532881592
1676 1 15.5877504667 3.08661585619 6.39341619013
1680 1 15.5854823258 1.30090925219 4.14523490306
2008 1 18.3195006177 1.31095875767 4.12518661732
2047 1 16.9836188072 1.07171087631 6.14691774107
2369 1 18.4114929654 3.06031642415 6.37170211523
2046 1 16.9763789019 3.30691359328 4.39414425351
2333 2 21.9487587678 0.952546573761 6.00377575803
2698 1 19.7610257755 1.01629816885 6.03436443985
2697 1 19.7111657747 3.24054537837 4.37879511287
2325 1 21.3600830708 3.04751307167 6.5694640578
2662 1 21.9647448659 2.31241230923 4.22409776037
2701 1 24.4652946431 2.80545860237 4.02253910435
3033 1 26.0534453197 0.917415980428 4.07027380708
2704 2 24.9294433558 1.42141818047 6.15071966522
3030 1 26.1136981237 3.22315713451 5.82842853991
2991 1 27.5054332621 2.80894285153 3.87206014276
2992 1 27.4070367251 1.08756509756 6.09422809568
3319 1 29.9530625482 2.76908385992 3.89545426029
3320 1 30.076989706 1.00718982542 6.11271291927
3358 2 28.7236638882 3.05907580536 6.10459298796
3361 2 28.6696386931 0.550412378929 4.12499899603
3647 1 32.8009056677 2.7633478089 3.90436821979
3648 1 32.8306718974 0.976595130421 6.11461001116
3686 1 31.4049273094 2.99953796894 5.88568982519
3689 1 31.3851310108 0.782434378942 4.10035840969
4017 1 34.2430812454 0.763929651084 4.12902721675
4014 1 34.250583181 2.97041828865 5.9127743152
3975 1 35.6603801588 2.77554762418 3.91920043931
3976 1 35.6679351137 0.952995223427 6.14379580463
4342 1 37.0477724643 2.95409260518 5.92607291359
4345 1 37.0694886882 0.761782079856 4.13784742076
4303 1 38.4540958152 2.80708794601 3.92205179127
4631 1 41.2299681736 2.82011495678 3.87271532126
4304 1 38.471897205 0.97360865876 6.15344103536
4632 1 41.2521473437 0.971247811492 6.13083776189
4670 1 39.899753138 2.9864867626 5.90468301852
4673 1 39.8328562372 0.79996630894 4.12347539369
218 1 45.2488360098 0.875867786682 4.04761457768
79 1 45.2276100971 2.92592823812 5.74629123087
4959 1 43.8533581752 2.78458717558 3.77607465888
4998 1 42.6588201483 3.08654667568 5.88667580403
5001 1 42.5365394757 0.769143403994 4.04795947334
37 1 43.7697081306 0.940206807765 6.04950455348
401 1 1.43525445431 5.27370666202 5.14373796811
400 1 2.93431634156 7.25199173484 5.02112318107
393 1 1.4149746308 7.01784313228 7.15715911558
30 2 3.1943969058 5.31957435492 6.73101266768
363 1 4.35374788029 5.31909404914 4.58786560221
691 1 7.15715813683 5.27025284182 4.59342985575
729 1 5.78320217725 5.09746789947 6.60254572
685 1 7.17272685075 7.08027785103 6.85463950781
357 1 4.4212044093 7.15952209147 6.94567588202
728 1 5.76646713115 7.29406820339 4.83504365357
1019 1 9.90055305881 5.17687882795 4.6117819956
1057 1 8.53030961443 5.02747593939 6.63652633883
1013 1 9.95072655882 7.01491651184 6.86325990108
1056 1 8.58450157317 7.27082704933 4.84274456791
1384 2 11.1945919841 7.0072145118 4.84019950374
1385 1 11.3920856688 5.0676496097 6.61278828352
1347 1 12.7748079734 5.26068692851 4.61580950429
1713 1 14.1690351223 5.10578512464 6.5987236685