ITEM: TIMESTEP
6000
ITEM: NUMBER OF ATOMS
5248
ITEM: BOX BOUNDS pp pp pp
0.0 45.68
0.0 36.5618393957
0.0 36.5618393957
ITEM: ATOMS id type x y z
409 1 3.19607594428 1.45181304587 2.01661952167
39 2 1.79539230857 3.16760353329 2.0774219387
41 1 1.45966840458 1.79303423337 0.0935108763279
408 1 3.020468362 3.63501615008 0.119732393398
697 1 7.24788727441 1.76949239365 0.127306277508
737 1 5.80951971592 1.54519271196 2.12040024143
695 1 7.23380761939 3.54513506387 2.34298330553
369 1 4.48623474898 1.72460246746 0.0446702964218
367 1 4.41508743715 3.59286884398 2.26137949681
1025 1 10.0626141406 1.76729576648 0.103756610337
1065 1 8.64722113257 1.55289349067 2.14413007096
1023 1 10.0367154651 3.55944490055 2.37967857749
1393 1 11.4205778187 1.54825599303 2.15973318078
1353 1 12.8160660844 1.75448729412 0.130185910603
1721 1 14.1967037299 1.56051130402 2.18375847209
1351 1 12.8179890684 3.56069859166 2.3930891084
1681 1 15.6094036763 1.79292986734 0.184150529719
2049 1 17.0082799308 1.62375494566 2.22766585323
2009 1 18.4173535573 1.83077272813 0.1953644285
1679 1 15.6041236253 3.58020879418 2.42506202069
2007 1 18.4961093283 3.63529434459 2.45036697181
2377 1 19.755484845 1.56924131021 2.17370481858
2337 1 21.2704512038 1.78506739518 0.293601940159
2335 1 21.062859928 3.54704590089 2.37029101768
2336 1 22.8452485078 1.96407603901 2.17797189041
3032 1 25.9513352754 2.23591848503 1.88737561895
2731 1 24.2465921146 1.98400802571 0.0994597028746
3034 1 25.7228062284 0.0730312054927 0.0504533989996
2665 2 24.6234123127 0.54404381711 2.16752952682
3360 1 28.6026192212 2.2159337182 1.76179020954
3321 1 30.0190159705 0.363366721094 2.06582511458
2993 1 27.2163554069 0.227110309695 2.0371591608
3362 1 28.5902109513 0.155801311727 0.00779167925503
3649 1 32.7626122646 0.455063254397 2.11212537342
3688 1 31.2971622667 2.48096388571 1.8704515397
4016 1 34.165451146 2.45944156658 1.90394061947
4018 1 34.1902423649 0.24248695215 0.124229696944
3690 1 31.39913981 0.213034311976 0.0676001321292
3977 1 35.6031215539 0.455026736631 2.1398394211
4344 1 37.0219543798 2.45835026481 1.92328433025
4346 1 37.0146059081 0.26249833254 0.146694024884
4305 1 38.4463152068 0.445171519942 2.13303603703
4672 1 39.8345055303 2.45100675911 1.93104745806
4633 1 41.2712845017 0.432034635564 2.14484430525
4674 1 39.8793223327 0.24877780647 0.12100702425
81 1 45.5272276061 2.03448950726 2.02253338086
5000 1 42.6563860483 2.4438100875 1.91933370364
4961 1 44.1052120878 0.238307732393 2.03273531978
5002 1 42.6923148237 0.192995451141 0.114803556838
5027 1 44.1695510008 2.12720236544 0.0352923858642
36 2 3.38036419824 5.79349494643 2.84114650317
77 2 0.116987467628 5.73892429416 3.17119581113
80 1 0.0399452726005 3.91442405118 0.171518879208
35 2 1.71468546642 5.60739569721 0.126071067763
366 1 4.39084068017 5.69590520309 0.584699114279
694 1 7.2512427568 5.74675342002 0.574141614938
733 1 5.87769953594 5.58649278081 2.57163341451
736 1 5.8327677906 3.75945270785 0.333311045758
1022 1 10.052930817 5.74628004464 0.610846185225
1061 1 8.60976966534 5.54411057807 2.62150641279
1064 1 8.65235769602 3.75562143617 0.344980039947
1392 1 11.446299281 3.75198476385 0.352266601545
1389 1 11.4504414049 5.56635142927 2.61791672596
1350 1 12.8151181076 5.75569875781 0.61277274444
1717 1 14.2110218236 5.58651022105 2.62039058327
1720 1 14.2217896221 3.77359251389 0.389185055818
1678 1 15.6786968891 5.76206603705 0.645799835339
2006 1 18.5236658796 5.80757061082 0.675248609259
2045 1 17.0230105167 5.550102735 2.68783166896
2048 1 17.0707291921 3.81554278177 0.438667205925
2376 1 19.9242872844 3.87040354155 0.363253603558
2373 1 19.9375906921 5.65254946257 2.71680926811
2387 1 21.3863750839 5.90518248995 0.653128971052
2767 1 22.6705373685 3.79391825076 0.449051710243
2759 2 22.0974218794 6.88043056102 2.94087462576
3029 1 22.9705002431 4.84053367851 2.93166971187
2663 1 24.7636506132 4.13340346899 1.78100767962
2695 1 24.5714332882 6.64485001826 3.12992449618
2722 2 23.9109903951 5.76656864794 0.64622967147
3028 1 26.2597595207 6.28870818265 1.24563171391
2702 1 26.006254621 4.67989986164 3.64205848062
2986 2 27.1691629284 4.00290773236 1.44127810074
3318 1 29.7757321776 4.46644915159 1.70046350839
3356 2 28.7022228725 6.74298084554 1.63741737138
3023 1 27.1481562482 6.86404829547 3.52337943042
3314 1 30.0181822303 6.74485765148 3.54516873189
3646 1 32.7190823265 4.46113905462 1.68816348467
3684 1 31.2986456122 6.45565428323 1.47387465403
4012 1 34.1515432363 6.45168341004 1.4639068211
3642 1 32.7563614861 6.66759265282 3.4638799389
3970 1 35.564721856 6.67078968873 3.4789696693
3974 1 35.5805549501 4.45387325141 1.69612051339
4340 1 36.9798724699 6.45741835409 1.47378199529
4298 1 38.389347732 6.69334239618 3.4690177863
4302 1 38.4222652656 4.46938191812 1.71613652907
4630 1 41.1879093719 4.44620218438 1.73841798997
4668 1 39.795027219 6.47874584383 1.46332161484
4626 2 41.1487794924 6.88616463457 3.39372509719
4958 1 44.0614049887 4.49435130461 2.02119387259
4996 1 42.5322502073 6.47597622304 1.55691899837
4954 1 43.9855504592 6.99926653886 3.43442433205
70 1 1.5339422926 7.42261654675 3.29086339668
38 2 1.00596576848 8.48859114129 1.2760400159
404 1 3.09010290337 7.62394640789 0.927798669142
392 1 2.80978506831 9.50412983053 2.95936660199
362 1 4.48997621569 7.68734710659 2.92345875584
361 1 4.53822721991 9.63564884388 1.08910206189
689 1 7.33840513167 9.7194223136 1.11157682315
690 1 7.22902933473 7.59216114213 2.86293095091
727 1 5.82501960158 9.64454615061 3.08687234761
732 1 5.87133415115 7.70365762196 0.826021630387
1017 1 10.081960526 9.77700263385 1.02197457326
1018 1 10.0092661791 7.50392933207 2.84398500669
1055 1 8.70204189529 9.58124195026 3.05953879559
1060 1 8.68279078201 7.72910839238 0.842689575359
1383 2 11.2647443196 9.36296703178 3.05880538459
1388 1 11.4401843517 7.76634977562 0.838801700806
1345 1 12.7798259559 9.76573740674 1.12084565224
1346 1 12.853960143 7.6012472243 2.8146730411
1711 2 14.34608753 9.55294300778 3.0778123442
1716 2 14.2439192664 7.6655818553 0.719845950067
2002 1 18.3014130781 7.58213005235 3.05911726713
1673 1 15.6010079185 9.75939399565 1.05482493308
1674 1 15.6390600125 7.5445828196 2.86607638236
2039 1 16.9657312107 9.58583407339 3.08820490195
2044 1 17.0438094686 7.77557687435 0.892932117444
2001 1 18.4288427451 9.76886723033 1.03085639842
2334 2 19.5803093693 7.75902840037 1.3049774477
2367 1 19.9797793264 9.62791752476 2.91682821114
2372 1 21.8116660545 8.57555645629 0.965013161185
2323 1 22.7382313033 9.05531655035 3.24958069467
2059 1 24.5582088656 8.0098099547 0.838865545012
2715 2 23.7923670682 9.92704288561 1.47035216583
2657 1 25.6129907227 8.79629557097 3.06073552056
3022 1 25.8771638168 10.5551104927 1.00891426163
2979 1 27.1795901839 10.7059266462 3.04445141857
2985 1 27.2398260901 8.56221681115 1.23834806876
3307 1 30.0125911269 10.7129878659 3.0188627734
3313 1 30.0391541351 8.56675135178 1.25067334404
3350 1 28.58829103 10.5506760913 0.977861596426
3351 1 28.6135389341 8.75236651043 3.25388618573
3635 1 32.8122183834 10.7145673555 3.02804540558
3641 1 32.7465129254 8.45489487551 1.24020001946
3678 1 31.423259936 10.5188168704 1.01254342262
3679 1 31.418834205 8.72014630983 3.26625352072
4006 1 34.1668302341 10.4670450075 1.00509516418
4007 1 34.1667295163 8.66973796764 3.2451972488
3963 1 35.5519978033 10.6720021681 3.03191424763
3969 1 35.5543942732 8.45592085107 1.24508373825
4334 1 36.9437213939 10.4725932646 1.01302789024
4335 1 36.9562470277 8.67275703675 3.26100368286
4291 1 38.3220302719 10.6912954632 3.04561567023
4297 1 38.3572364601 8.47364916925 1.25040297355
4619 1 41.0646716897 10.7828534098 3.07765967789
4625 1 41.1676916417 8.5180408188 1.27934217753
4662 1 39.7384380682 10.4891119094 1.04323875589
4663 1 39.7375789559 8.74407802503 3.26813023647
33 1 45.520157298 9.23554825087 3.30652977905
71 2 43.6835191787 8.66340348458 1.50144385778
4953 1 42.4972235369 10.6013283546 1.10754874083
4991 1 42.5015238348 8.8649183153 3.37114721363
129 1 45.1769480019 10.5642835278 1.27494270886
4946 1 43.8782344239 10.8915279782 3.17467578267
398 1 3.05152162109 11.3789140417 0.992143464807
26 2 2.53791323991 13.2591947202 1.97752011077
128 1 0.861550831847 12.3957116067 0.858587263872
399 1 1.30894024927 11.3932460679 3.15950118254
354 1 4.64053348995 13.6952995377 1.5503896436
355 1 4.23470546183 11.6130011662 3.19787779223
682 1 7.26530061263 13.7126016785 1.52832576783
683 1 7.28368974681 11.5602123815 3.26545464817
726 1 5.8790317999 11.6646068601 1.2775639494
719 1 5.83589515458 13.4902148498 3.61810056962
1010 1 10.0129106513 13.7820475553 1.50459584482
1011 1 10.1325111239 11.5701502833 3.30589003306
1054 1 8.72059156604 11.7472934375 1.29219322826
1047 1 8.64273190388 13.5424642611 3.53744380409
1382 2 11.4152789912 11.8784595721 1.19140596415
1375 2 11.2401175544 13.8002398191 3.56573514378
1338 1 12.7791403674 13.7429609771 1.54657280654
1339 1 12.7468010352 11.5656622629 3.38803920788
1710 1 14.1182064803 11.7166876337 1.31761486534
1703 2 14.3432325792 13.683403828 3.42108910038
1666 1 15.540501603 13.7177389792 1.41104772314
1667 1 15.5076166469 11.5489315837 3.29696817976
1994 1 18.4085903686 13.7210703849 1.33420164926
1995 1 16.9864664842 11.7405828695 1.28291927313
2031 1 16.9236507328 13.4863602305 3.36237275098
2366 1 18.3817297513 11.5145915871 3.34320229462
2329 2 19.6639413335 11.6594767641 1.43396868584
2687 1 21.3069549358 13.4174063057 1.37026341618
2688 1 21.2438409365 11.5288164935 3.50678929174
2359 1 19.8220253398 13.4486019708 3.31083547747
2421 1 21.8784483056 10.9980597843 1.37103074132
2694 1 22.790002395 13.2303255601 3.2881306594
2643 1 24.125664365 11.1399778191 3.24925220399
2642 1 25.8734180724 12.7312812098 2.85983048462
3014 1 25.6382367827 14.4415615593 0.54218937488
2382 1 24.193276508 12.4528245553 1.09648351562
2978 1 27.1689098477 12.5532410118 0.845420837095
3306 1 30.0109534773 12.5189442433 0.799262918852
3343 1 28.6045905775 12.7215014671 2.81452729133
3342 1 28.5911915318 14.5210031441 0.598003974987
3634 1 32.8170959443 12.5140973823 0.794932076071
3670 1 31.417653834 14.5163132804 0.57523682216
3671 1 31.4206467142 12.7170174756 2.81145850777
3999 1 34.2149405667 12.7220384798 2.80870420036
3998 1 34.224331672 14.5247077668 0.576614980998
3962 1 35.5714650741 12.4908555247 0.779716179195
4326 1 36.9695124538 14.512587594 0.569739411801
4327 1 36.9104613405 12.6717851273 2.8154727896
4290 1 38.3310530912 12.4957008526 0.802882834361
4618 1 41.0754901569 12.5227387983 0.82060599
4654 1 39.6928447308 14.5289770582 0.581405490392
4655 1 39.6889675307 12.7038615888 2.83920905433
4282 2 38.2906355585 14.52981103 2.60487913037
63 1 45.140755125 12.9022270906 2.8878520172
4938 1 42.4377393541 12.8228836266 2.84961690413
4990 1 43.8621366547 12.5969174537 0.853599741593
4982 1 42.3283230156 14.5237529873 0.623403530542
125 2 45.4540734197 14.3748343274 0.828195974943
390 1 3.16106411053 15.6947367511 1.71472931653
17 1 1.77806895146 17.7878852791 1.8852556797
18 2 1.59508203012 15.9520063788 3.4795978122
345 1 4.53155585194 17.7509163554 1.84264417226
673 1 7.23928638842 17.8065800962 1.89627572339
718 1 5.92083442936 15.7500626386 1.66476701111
1001 1 10.0237611816 17.7880770324 1.93980184946
1046 1 8.61246467945 15.7782002127 1.69139831383
1374 1 11.3993798743 15.7749099128 1.71842561024
1329 1 12.7573817201 17.7836954653 1.8835403537
1702 1 14.1615397778 15.7584055116 1.68283365358
1657 1 15.5767528483 17.7393486239 1.89210180028
2030 1 16.9323008254 15.7071798637 1.53054022711
1985 1 18.2785432512 17.6906879895 1.65430892197
1986 1 18.3069759583 15.391455505 3.42685166277
2869 1 21.2184340009 15.4003885566 3.08738073703
2358 1 19.6378606331 15.7475971836 1.49576538317
2313 1 21.1426874661 18.1468786999 1.9046009866
2314 2 19.6806738869 17.4248596956 3.44049544135
2870 1 21.5130121707 16.241696827 0.248302993513
2381 2 23.1432317431 14.6317278119 1.27420384134
2866 1 24.632304505 14.777832621 2.91416002969
2678 1 23.1543789133 16.6210341472 2.30498048872
3006 2 25.7973161998 16.7278639253 2.1167059145
2641 1 24.2761650759 16.4175255516 0.132789522309
2970 1 27.1632975869 14.7311154866 2.57200293848
3298 1 30.0143082469 14.7226814785 2.58416290611
3297 1 30.0024442587 16.5101309571 0.352121640928
3334 1 28.5817684792 16.716626717 2.32441673498
2969 1 27.1254406963 16.4705608459 0.282511750516
3626 1 32.8291957643 14.7309006038 2.58074684233
3625 1 32.8286955373 16.5264976629 0.357437394518
3662 1 31.4268859845 16.7257556852 2.35522178513
3990 1 34.2444082264 16.7565028595 2.3572415741
3954 1 35.6313362801 14.7576398901 2.57912675491
3953 1 35.6472947527 16.5409722409 0.374346732724
4318 1 37.0613288269 16.7611770521 2.35721158104
4610 1 40.9522683198 14.7619230087 2.63706058857
4646 1 39.5319732581 16.7471904715 2.34977941593
4609 1 40.9608093645 16.5635084804 0.372951526028
4281 2 38.3330299319 16.516648241 0.141576628191
27 1 43.7833819253 14.8509090729 2.61299533923
62 1 45.298576788 16.6667055959 1.96561459016
4974 1 42.2938965964 16.7616475811 2.391861112
4937 2 43.4363176618 16.5119652167 0.483844170203
573 1 3.16784226898 19.758749517 1.9734229599
205 1 1.56596468528 20.1052042322 0.00825554915976
244 1 1.72481379776 21.7271539311 2.0362853401
245 1 0.263053007174 19.6767504331 1.93570888092
861 1 7.24323896442 20.0110497096 0.0682615753254
901 1 5.83995442938 19.8108763014 2.07021475461
859 1 7.20784885739 21.8142422868 2.31086713244
531 1 4.4137287912 21.8085622229 2.27322803747
1189 1 9.97427700879 20.0274026153 0.0912665911178
1229 1 8.6155502505 19.8113638844 2.11282966462
1187 1 9.97823138075 21.8210236403 2.31601297414
1557 1 11.3544026863 19.8083755505 2.07489798783
1517 1 12.7508932236 20.0227973116 0.0780946836106
1885 1 14.170699894 19.7760060883 2.06926491625
1515 1 12.7626771258 21.8106170525 2.30796318543
2213 1 16.8290766092 19.7549984282 2.08395230525
1845 1 15.539597608 20.0115755712 0.0652039966773
1843 1 15.4766883245 21.8236737738 2.26769227096
2171 1 18.2524238759 21.73937481 2.27347107127
2173 1 18.4783462024 19.992937261 0.227338435223
2828 2 20.3577642358 20.4852207571 1.99730322326
2829 1 22.876771589 18.3301153392 0.224338107994
3198 1 25.6671810183 18.5102969937 0.153015287891
2868 1 22.9637980737 20.6548415441 1.7976973033
3196 1 25.8166043036 20.7343843058 1.7792086522
2500 2 23.2065042443 18.7158570083 2.8644640045
3526 1 28.5783881056 18.4886649357 0.166447320836
3157 1 27.15967101 18.716392552 2.16961358943
3485 1 30.02086094 18.718634903 2.1469269918
3524 1 28.60932353 20.6887767597 1.91881883067
3854 1 31.4229003328 18.5182336894 0.144629076095
3813 1 32.8101945168 18.7318458964 2.15327964395
3852 1 31.4294200741 20.7580182546 1.94513035381
4182 1 34.233570663 18.5436010907 0.154540530475
4180 2 34.214872241 20.6645729217 1.86774197234
4510 1 36.9877900286 18.5631791959 0.132036066797
4141 1 35.6647386688 18.7522715811 2.1514636773
4508 1 36.9254403325 20.8904118934 1.95022339744
4797 1 40.9292854673 18.7453251133 2.09832621066
4469 2 38.316305785 18.9967478865 2.11155575131
4836 1 39.7785600099 20.8584777248 1.88705526638
4838 1 39.6997485683 18.5723832696 0.0920292232084
5125 1 43.7728627526 18.6891151275 2.34358437888
5164 1 42.567850849 20.7738610993 1.83602642547
5166 1 42.4396610755 18.5579968194 0.18632577957
5191 1 44.2697968194 20.0948592727 0.0260096745736
572 1 3.05855010779 21.9866637707 0.121879115625
569 1 2.99234285923 23.7603813773 2.58558876051
627 1 1.69177840449 23.7867450939 0.515145465777
5122 1 0.153650680067 23.463769583 2.86299609704
198 1 1.45349740562 25.5577770772 2.95317159335
530 1 4.45275702639 23.949634212 0.516715625869
858 1 7.17977906841 24.0201293777 0.526404962815
897 1 5.79950000873 23.8076988116 2.57359916258
900 1 5.80886844188 21.9907062235 0.258383149907
1228 1 8.59411836758 22.0421550716 0.29089519392
1186 1 9.98561593153 24.0670107851 0.512120728796
1225 1 8.58602829019 23.8336184235 2.55024784468
1553 1 11.3694928028 23.8216324945 2.54136687178
1556 1 11.3767094016 22.0436128976 0.304674065531
1514 1 12.7532650763 24.0562989235 0.535653545623
1881 1 14.1137181738 23.8352050604 2.54334830867
1884 1 14.1275277416 22.0349058596 0.273194130854
1842 1 15.5202595426 24.0320358478 0.539509303069
2170 1 18.2165638838 24.0260414029 0.54525086418
2209 1 16.8511167845 23.7690355407 2.55109945937
2212 1 16.9259208922 21.9904880874 0.288482092164
2494 1 21.4199972869 22.389263702 2.2283610788
2495 2 19.4006115543 23.6905943733 2.66480659194
2537 1 20.8451379401 24.166954423 0.657555137518
2540 1 19.8080508872 22.1207842641 0.235536468795
2923 1 22.759492757 24.4378520261 2.30595679016
2501 1 22.8651409106 22.6749233076 0.0989516863551
2826 1 24.4436492999 22.6260364098 1.94032558093
3192 2 26.0824772004 24.6421506817 1.23937480355
3154 1 27.2246182776 22.6866193562 1.79789373912
3478 1 29.9880066365 24.9430620842 3.51535849078
3482 1 29.9917120439 22.7414468387 1.75875087264
3520 1 28.5823765334 24.7536588543 1.5372907294
3150 1 27.0997886204 24.8261368847 3.55893854938
3806 1 32.8073354576 24.9853152669 3.50917602684
3810 1 32.8491135175 22.7604778629 1.77421586431
3848 1 31.4028826217 24.7519236468 1.51700443758
4176 2 34.0715486736 24.8792885011 1.41331231523
4134 1 35.6463115132 24.9188394839 3.43770125893
4138 1 35.5746611127 22.8892934652 1.84064634552
4504 2 37.1845993316 24.9195361867 1.40737944704
4462 1 38.4525413921 25.0495450931 3.52028868909
4466 1 38.3780145005 22.8440284187 1.73603787206
4790 1 41.2269462012 25.0674604388 3.52847222471
4794 1 41.1972950263 22.8295483928 1.73439705503
4832 1 39.8309879394 24.8356687302 1.51954135738
5190 1 45.6037100761 22.1821633166 0.197734916059
242 1 45.5222117306 25.0728573015 1.14192169289
5160 1 42.5338023381 24.8532419022 1.55442620656
5161 2 43.8909334564 23.0384787511 1.72806314091
5118 1 44.1699612194 25.2843963436 3.24496045628
568 1 3.02341725924 25.7437958434 1.0145670447
563 1 2.85644560877 27.6455537782 3.07382004961
197 1 1.46657826805 27.5386379834 1.09470186823
526 1 4.38665361127 25.7749572473 2.90386098306
525 1 4.27573174082 27.9754386572 1.06603181775
853 1 7.15376641307 28.0324183841 1.00248924187
854 1 7.1835617518 25.8310253573 2.82820915421
891 1 5.73624228578 27.8264812903 3.04051135621
896 1 5.79661966768 26.0271276574 0.877218689048
1181 1 9.97845700174 28.0475951931 0.980124451667
1182 1 9.99162893751 25.8366995054 2.76335701196
1219 1 8.59493158532 27.8217867148 3.01714136195
1224 1 8.54698427741 26.0510531327 0.754435243967
1547 1 11.3787104347 27.8605260928 3.00246356825
1552 1 11.4158401038 26.0705652275 0.735445843768
1509 1 12.7766342812 28.0724435862 0.988395453228
1510 1 12.7229863919 25.8424003068 2.8184756927
1875 1 14.1486483808 27.8494219032 3.00429362382
1880 2 14.1337095504 26.0546727851 0.984453758791
2166 1 18.1454680105 25.8103013707 2.74550446319
1837 1 15.5139519014 28.078504144 0.964876549472
1838 1 15.5385259974 25.8185557452 2.80214614253
2165 1 18.1823360446 28.1178591606 0.94308074438
2203 1 16.8446328847 27.8349137509 2.95913948516
2208 1 16.8367442461 26.0615686056 0.713469547914
2589 1 19.5932911302 27.7124507968 2.81571625451
2536 2 19.5211471419 26.1084523394 0.801954879906
2487 1 21.754432831 28.6258158829 2.66153070685
2814 1 20.532419657 28.4060571815 0.603249221886
2551 1 21.9601051837 26.7045615623 1.15759080762
2531 1 20.8911062565 25.7194791727 3.01309508064
2859 1 23.2107897227 26.6488096275 3.33759978817
2851 1 23.4585499577 28.4814124045 0.94534972428
3186 1 25.9284697102 28.7897474862 0.752277603329
3251 1 24.58059419 26.4237283584 1.33753555886
2488 1 24.6626699052 28.6176723761 3.01851438191
3143 1 27.1576793176 28.8978276309 2.98680585982
3149 1 27.1619324512 26.7695349257 1.30107417889
3471 1 29.939701939 28.9335590759 2.99095311772
3477 1 29.9515285883 26.7591926282 1.30055162934
3514 1 28.520729586 28.7478717047 0.942058938192
3515 1 28.4946651905 26.9066312158 3.34593912572
3799 1 32.8216617524 28.9606263162 3.03378512852
3805 1 32.7813177705 26.8102036382 1.28825087351
3842 1 31.389309914 28.7844811973 1.0467934003
3843 1 31.3872275896 26.9644593749 3.27943264306
4170 1 34.2305500753 28.7766325886 1.04126798633
4171 1 34.2529019881 26.9429100742 3.26916227784
4127 1 35.6500059665 28.9833048524 3.05524217984
4133 1 35.6369403638 26.7866173841 1.28686999292
4498 1 37.031822366 28.8062612523 1.03532803128
4499 1 37.0345386374 26.965531708 3.28957089031
4455 1 38.3975009021 28.9785939383 3.04484194343
4461 1 38.4853659162 26.8675396085 1.29894688245
4789 1 41.2301197959 26.8711153187 1.30623513571
4826 1 39.8425769138 28.8710002248 1.0590529364
4827 1 39.884859853 27.0706387765 3.34110944867
4783 1 41.2701681883 29.0788376942 3.03174339688
241 1 45.5797351937 27.292942749 3.16296363609
240 1 43.8759206296 26.8396678697 1.32026796143
5154 1 42.5820314877 28.8960974841 1.08177537421
5155 1 42.640001572 27.1333402746 3.3748741745
289 2 45.1546305281 28.643439392 1.22252652545
191 1 1.37020990883 29.5397357182 2.87955789564
227 1 2.31080831734 31.057498226 1.18188283008
234 1 0.45717209386 31.764550876 2.92836984548
555 1 2.98963810594 31.8150943044 3.37777513915
518 1 4.55669969971 32.0680828476 1.53558157066
519 1 4.19015887685 29.7787748619 3.10140063797
846 1 7.23058797515 32.0612242576 1.51040139018
847 1 7.20651563291 29.8042633087 3.31123129864
890 2 5.90212957262 29.974210536 1.42776601791
883 1 5.80841272 31.7820737512 3.51310217318
1174 1 9.99002002743 32.0598229759 1.4831593003
1175 1 9.98566101483 29.8478521996 3.25432068614
1218 1 8.58090878551 30.0386881337 1.25638236709
1211 1 8.60249457649 31.8423784494 3.50713166717
1546 1 11.3848466958 30.0584292546 1.23878583585
1539 1 11.3956745726 31.8659371659 3.49018247394
1502 1 12.7807510002 32.0877485139 1.46863197848
1503 1 12.7870367434 29.8638413779 3.24671968169
1874 1 14.1626611601 30.0874601982 1.22011467822
1867 1 14.1659808489 31.8973716882 3.48827373121
1830 1 15.5693462783 32.0981060562 1.47861733324
1831 1 15.4952159484 29.8752393195 3.2320266057
2158 1 18.2932035632 32.0789034771 1.52523523081
2202 1 16.9272922694 30.080832051 1.26384198977
2159 1 18.1236634559 29.8305087898 3.36946955393
2195 1 16.9162587479 31.8913534158 3.53530734
2530 1 19.7402527346 30.185452418 1.83995352911
2486 2 20.7838438577 32.2994403158 1.72018164726
2858 1 21.8646404071 30.4181062969 0.916514650502
2843 1 21.9292228667 31.4087044911 3.58525623109
2850 1 22.765227252 32.8177627848 0.228232767125
2815 1 25.8595936564 30.8489704269 2.610600358
2806 2 23.504959516 30.3999284342 2.50746354799
3178 1 25.7438418589 32.6749049872 0.339888407441
2836 1 24.302737175 32.6629354766 2.2259642052
3179 1 24.2831701263 30.7333939968 0.31828891898
3142 1 27.2461133329 30.7749082031 0.615550869255
3470 1 29.9223318334 30.7326590187 0.688733007499
3506 2 28.6177159878 32.8243523553 0.560899125794
3507 1 28.548894145 30.9246674455 2.75968224759
3798 1 32.7943135968 30.7663709423 0.777900252344
3834 1 31.3673799878 32.7383070847 0.531257662558
3835 1 31.3639582627 30.9407476863 2.75872918789
4162 1 34.2162300626 32.7809970773 0.56705810592
4163 1 34.2228231809 30.9800108285 2.80054405143
4126 1 35.6381335894 30.8000255012 0.801681801863
4490 1 37.0530819351 32.8149010274 0.583701404044
4491 1 37.0336187459 31.0158619443 2.80221448213
4454 1 38.4464460304 30.8352487885 0.802727797148
4782 1 41.1954417705 30.8822455175 0.829490641239
4819 2 39.6789448356 30.9384884302 2.91121191813
235 1 44.2248697273 29.3086846458 3.08378569159
190 1 45.6630237961 32.4454573549 0.559416051724
5111 1 44.1450606413 30.7890091133 0.752663330852
5147 2 42.7342400381 30.9578660246 2.69018601821
5146 1 42.6748903833 32.7780166021 0.605690445062
181 1 1.49448562105 36.2602058347 2.06311968584
554 1 2.95902074298 33.9511785164 1.6715410295
410 1 2.93581486192 36.3679224744 0.0300893626427
5102 1 0.101160792513 34.3612344189 2.02324707742
509 1 4.45523035965 36.0029861027 1.87943433981
837 1 7.24427934894 36.1130577087 1.93999739671
882 1 5.8983252839 34.0836033457 1.73099152109
1165 1 10.0191039895 36.0993787098 1.93679143498
1210 1 8.62061950889 34.0776587989 1.73005067447
1538 1 11.3952156054 34.0889731059 1.70774383444
1493 1 12.7982298053 36.1061160932 1.93887804946
1866 1 14.1893044295 34.1108386179 1.71090555114
1821 1 15.590621494 36.1379938323 1.95772052741
2149 1 18.3081362668 36.1815216758 1.95314577075
2194 1 16.9613048292 34.1157435116 1.71396477897
2477 1 21.1987577636 36.2002876851 2.07839289428
2522 1 19.5328672868 34.1892191641 1.72512215019
2478 1 21.1914025574 34.023940277 3.48328416955
2378 1 19.8151853739 36.3858201498 0.0406426963599
2706 1 22.8371302785 36.5045909444 0.1600701257
2842 2 22.9692612858 34.6556816714 1.98054141291
3170 1 25.5818597752 34.849895307 2.33099335217
2805 1 24.2971339404 34.5566235572 0.0255734766614
3462 1 29.9926105278 32.9306573605 2.56828313388
3134 1 27.1404165738 32.9267666162 2.42248760095
3133 1 27.1195076589 34.7274680334 0.293362359673
3461 1 30.0228810944 34.7638123457 0.274492219925
3498 1 28.6136262076 34.8921959867 2.25263635506
3790 1 32.7963491636 32.9611164972 2.55691370231
3789 1 32.7956955285 34.7650754974 0.315835491539
3826 1 31.4077752209 34.9511801103 2.31378809476
4154 1 34.1920650132 35.0027671666 2.34603991727
4118 1 35.626685605 33.0057929347 2.57467273581
4117 1 35.6179228798 34.8032850429 0.356462218935
4482 1 37.0361299232 35.0055657053 2.36133993459
4818 2 39.8332241557 32.9105247636 0.472870972695
4774 1 41.255170753 32.9562334118 2.63466181473
4446 1 38.4648976902 33.0179986574 2.58669733513
4810 1 39.8584420237 34.9786916836 2.32890181792
4445 1 38.4192208479 34.8443681471 0.358405882645
4773 1 41.2734324237 34.7968897108 0.334600293022
5110 1 43.9860533665 32.9085090363 2.63311963787
82 1 45.645522758 36.5325784802 0.133513214115
5138 1 42.5842181657 34.9167811732 2.32351247269
5101 1 44.11074527 34.6927957525 0.272314087878
40 1 3.04367560468 3.47803143199 4.18693932739
540 1 3.05609195249 1.05211035987 6.09464615609
174 2 0.63483809978 0.996127157302 5.99695401117
402 1 1.78867264653 3.09847241679 6.15003229182
406 1 1.80327763534 1.37628696847 3.96777422144
78 1 0.387772322428 3.54996368797 3.81436889396
407 1 4.39615026306 3.01059753996 6.22009780509
368 1 4.42596511364 1.345435457 4.12123262214
692 1 7.19057361031 3.09925746925 6.40126354539
696 1 7.22619482516 1.3023265098 4.14773170139
735 1 5.80040478157 1.07810093622 6.16263931899
734 1 5.86345907239 3.29606999401 4.31346494731
1020 1 10.0099569001 3.09324627012 6.41065366702
1024 1 10.0196160849 1.32683487831 4.18650333624
1063 1 8.59935310716 1.09566230748 6.18235270492
1062 1 8.61322914562 3.3345828475 4.38971633326
1390 1 11.416547427 3.33285835324 4.40889062362
1391 1 11.4129517821 1.0960320446 6.20080363524
1348 1 12.7775838517 3.10456176168 6.43094835135
1352 1 12.7964781768 1.32575473227 4.19967126808
1719 1 14.1684378492 1.11222672283 6.22545570145
1718 1 14.1816590632 3.34147470836 4.4273747246
1676 1 15.585067928 3.11015066104 6.42551676614
1680 1 15.5840787297 1.36593383531 4.23512204812
2008 1 18.4457316184 1.37335550714 4.26926910423
2047 1 17.0245445296 1.1412051714 6.25311454295
2369 1 18.4789940933 3.10505925951 6.43976814815
2046 1 17.030960016 3.36141417692 4.4461920333
2333 1 21.1668344139 1.20103727556 4.05175723227
2698 1 19.9750731264 1.03249292632 6.31695893104
2697 1 19.8769405902 3.32601421755 4.5043739694
2325 1 21.3239754051 3.0932792413 6.54071508639
2374 1 22.5023238542 1.06406684637 5.87545107902
2662 2 22.3998115005 3.17327218679 4.35630074471
2701 1 24.5325723537 2.5319541715 3.90144370021
3033 1 25.9428726644 0.550485129704 4.0719036615
3030 1 25.7871786762 2.97047874603 6.00461458605
2704 1 24.7951751542 0.704058837761 6.0340623114
2991 1 27.2602418832 2.65841733281 3.91960404369
2992 1 27.2810023555 0.941853211672 6.06094010099
3319 1 29.9442787492 2.69015301212 3.87591059472
3320 1 30.0041060509 0.93831872157 6.13537542402
3358 1 28.6196688343 2.96068868692 5.92985118001
3361 1 28.6286561068 0.647692273575 4.05908151773
3647 1 32.7531486727 2.67889177929 3.89848273902
3648 1 32.8047211906 0.878656757672 6.13829111217
3686 1 31.4025845693 2.89607857242 5.93188828547
3689 1 31.3679870575 0.672521628682 4.11671978711
4017 1 34.1872802934 0.671393938118 4.12853918241
4014 1 34.1977853753 2.88853243174 5.92416596899
3975 1 35.5972822506 2.6733975173 3.91673430616
3976 1 35.6199868702 0.886554892007 6.14045472641
4342 1 37.0027221647 2.89476180422 5.91764456726
4345 1 37.0347348064 0.678430271867 4.14482091846
4631 1 41.2057604406 2.64080845802 3.94442581553
4303 1 38.4336534221 2.69621806303 3.95245374667
4304 1 38.4504802032 0.92044132264 6.16631477931
4632 1 41.2129150086 0.999763422147 6.15177630935
4670 1 39.8189442795 2.9277911029 5.99537813831
4673 1 39.8247079739 0.694809956686 4.14951420842
218 1 45.2789705111 0.695906584062 4.07766827541
79 1 45.1464085386 3.03876638324 5.94888526315
4959 1 43.8277243247 2.682065387 3.88144525136
4998 1 42.5649400976 3.08789052728 5.90794310432
5001 1 42.6938905285 0.561054327056 4.15617189634
37 1 43.8146006653 1.13070329863 6.16269995804
401 1 1.1354552226 5.28906488442 5.25898700976
30 2 3.11851343641 5.02468503389 6.24948891731
393 1 1.44379314681 6.89785311728 7.15538622803
400 1 3.00439681003 7.25421900288 5.03608435451
363 1 4.64744496198 5.35083957607 4.62718646522
691 1 7.18739743756 5.33319697663 4.64636268853
729 1 5.79143316952 5.05361937774 6.7076362401
685 1 7.23796353591 7.05396370259 6.9154090927
357 1 4.37963983983 6.9916981399 7.01284824464
1019 1 10.0291725621 5.34687531324 4.6248277585
1057 1 8.61461346865 5.09184283414 6.64297749462
1013 1 10.0212267143 7.13420398814 6.86201367442
1385 1 11.4025962897 5.12611975925 6.63858035697
1347 1 12.8091051544 5.36533470769 4.62414341036
1713 1 14.1710527389 5.11641960271 6.64456561247
1341 1 12.7996734722 7.15873793188 6.85144226947
1675 1 15.5846875575 5.35057347764 4.65248206301
2041 1 17.0138663145 5.09724927525 6.66146605018
2003 1 18.4722322907 5.31790081502 4.68840661187