ITEM: TIMESTEP
22000
ITEM: NUMBER OF ATOMS
5248
ITEM: BOX BOUNDS pp pp pp
0.0 45.68
0.0 36.5618393957
0.0 36.5618393957
ITEM: ATOMS id type x y z
409 2 3.33615583627 1.00984714236 2.27256057956
39 1 2.02247711107 3.01937080918 2.12966921438
181 1 0.932077077874 0.838421974974 2.08563419279
697 1 7.21978689509 1.62971975183 0.102613235042
737 1 5.82447431662 1.40241555429 2.09000648611
695 1 7.21344144473 3.42396941159 2.33493626861
367 1 4.43559223856 3.37526606611 2.31141476576
736 1 5.82460016787 3.58980010392 0.309773656192
369 1 4.2921405173 1.71389223183 0.145311707658
1025 1 10.0529543899 1.64997050789 0.117902207649
1065 1 8.62807333364 1.42013088275 2.10779483743
1023 1 10.0334981911 3.43322618209 2.37554005529
1064 1 8.64711458816 3.63850153329 0.35172458657
1393 1 11.4341034098 1.42626530206 2.13857560846
1353 1 12.816257729 1.6593122476 0.141276584747
1721 1 14.2378636059 1.43782700897 2.14359764241
1351 1 12.8328967225 3.43897574267 2.39360161394
1681 1 15.6119822833 1.66083192434 0.131110758766
2049 1 17.0540598084 1.41243617698 2.11615352477
2009 1 18.3937680076 1.69535536423 0.102759912078
1679 1 15.6514119668 3.4438082263 2.38385616079
2007 1 18.3699541246 3.49650560914 2.35138991445
2377 2 19.6653099938 1.67198877765 2.11624114356
2477 1 21.9168254843 0.83822307773 2.43794899959
2337 1 21.2503484825 1.73614560795 0.185484042598
2335 1 21.1118735217 3.62778587152 2.19370205672
2706 1 22.9739333157 0.140720597748 0.322493255352
2336 1 23.2913260903 2.63104042019 1.95380798991
3032 1 25.8311659433 2.55680626346 1.94234329829
2665 1 24.4201313528 0.509355355077 2.24265235576
3034 1 25.7663089148 0.331211825872 0.147843973321
3360 1 28.6113289936 2.57043110602 1.87910498799
3321 1 29.9781166829 0.541388998955 2.10614574972
2993 1 27.2731618708 0.565271099134 2.06126990039
3362 1 28.5710903028 0.32041216611 0.0530099703256
3649 1 32.7944711366 0.538145697736 2.1447752111
3688 1 31.3607558 2.54625461459 1.91718478381
3690 1 31.3949739664 0.314522951931 0.131769638245
4016 1 34.1955856933 2.54052350334 1.9289665427
4018 1 34.212068429 0.322256582877 0.144845279515
3977 1 35.6264666634 0.545422779189 2.16097903791
4344 1 37.0224407566 2.56505141151 1.95241613823
4346 1 37.0346590975 0.336271295527 0.143450035159
4305 1 38.4330746191 0.557462110301 2.15692180137
4672 1 39.7816422171 2.60319329913 1.97584538712
4633 1 41.2040792528 0.630088456456 2.16972730388
4674 1 39.8697412977 0.36548381675 0.13413794435
81 2 45.0443325441 2.70405696135 2.3062194525
5000 1 42.5032070171 2.72099195147 2.02770339165
4961 1 43.8515995384 0.6254522971 2.32376317424
5002 1 42.5782992915 0.435961899411 0.183494886212
82 2 44.8429961083 0.584751662802 0.283319004035
5027 1 43.9216002334 2.57934193805 0.0309335934235
408 1 3.08149895294 3.9337861488 0.134349114551
36 2 3.19746631889 5.3977079498 2.17395491143
77 2 0.206505942839 5.61576728391 3.18361972852
35 1 0.157703881561 6.96091549132 1.02565577849
366 1 4.61363458437 5.68330049225 0.462891066618
694 1 7.23748800645 5.61433396923 0.583905599743
733 1 5.80588292068 5.41734850557 2.59273122798
1022 1 10.0593228951 5.66707631767 0.615887699076
1061 1 8.63014833156 5.42658951071 2.59985172142
1720 1 14.2056262566 3.66019157255 0.380894420372
1392 1 11.4397814455 3.66219413256 0.374870897836
1389 1 11.4458427436 5.4481386252 2.63571189222
1350 1 12.8212743348 5.69162418004 0.627037590826
1717 1 14.2098351061 5.45744702054 2.63129639471
1678 1 15.5612121943 5.66443825667 0.622136118336
2006 1 18.3809234207 5.67222232364 0.549332239784
2045 1 17.0208303643 5.46958615266 2.6123393183
2048 1 16.9821655542 3.68308867482 0.33235172664
2376 1 19.7825843488 3.71199390518 0.275634435212
2373 1 19.7116745575 5.48763544368 2.53119885589
2387 1 21.2638753393 5.78258195075 0.516756543927
2767 2 22.4807627332 3.82303884075 0.0965662215878
2759 1 21.2508016646 7.26143000758 2.82006672948
2722 2 23.3412562566 6.60052978033 1.81846889811
2663 1 24.5457669455 4.62245368982 1.66420378658
3028 1 25.9128230638 6.67764918101 1.5993230025
3029 1 23.1456593044 4.96515787672 3.6467309043
2986 1 27.2207379606 4.58523857898 1.68640527747
3318 1 29.9954178632 4.56682183357 1.66518096131
3356 1 28.5978593731 6.60498424382 1.4992605218
3023 1 27.2449232346 6.84059402105 3.54242148624
3314 1 30.0201083571 6.80455291031 3.49729041783
3357 2 28.6375596323 4.87781779127 3.61100684213
3646 1 32.7735163642 4.54308404578 1.70447151471
3684 1 31.3849369025 6.56878040213 1.47364410332
3642 1 32.7799427692 6.7500213987 3.4885114097
4012 1 34.1667592538 6.54808916891 1.47448690634
3970 1 35.5809332442 6.75486869359 3.48928945137
3974 1 35.5927350257 4.55006065354 1.72260126475
4340 1 36.9450809091 6.56321841879 1.48102719863
4298 2 38.3503476159 6.87616853249 3.41790079046
4302 1 38.3967195472 4.59928931949 1.78748811827
4630 1 41.0848401626 4.63991103217 1.77742122656
4668 1 39.7310355031 6.63064898897 1.53478805913
4626 1 41.1466769076 6.89259823893 3.52785653222
4958 1 43.9953049175 4.79925759613 1.90012115166
4996 1 42.4455671969 6.66896509081 1.58654468653
4954 1 44.1884964025 7.0730734204 3.22838639847
4997 2 42.4896968352 4.96965431808 3.61802186164
70 1 1.61134838877 7.32974236558 3.0716286732
404 1 2.94511441313 7.45278091445 0.802028141743
38 1 1.38721346567 9.1467401783 1.10452097319
392 1 2.91969680517 9.35998173087 3.05025809306
362 1 4.37179928051 7.40747252712 2.85867282974
361 1 4.44516625127 9.48168215044 1.08729948091
689 1 7.29621843738 9.63600258401 1.09644322001
690 1 7.24410783584 7.42592081691 2.85980834413
727 1 5.81064458773 9.40742147772 3.08797820266
732 1 5.90956167042 7.64364618645 0.833803348767
1017 1 10.0160945536 9.67426475093 1.03080930075
1018 1 10.023732392 7.41265692269 2.85207000602
1055 1 8.67923768545 9.43412222561 3.10177712509
1060 1 8.64615007508 7.63603176935 0.835268285979
1383 2 11.2716310849 9.35762876405 2.93709237563
1388 1 11.4576926827 7.71613409892 0.869977412822
1345 1 12.8455735504 9.77028581982 1.12548865208
1346 1 12.8143125758 7.49016348056 2.88502460143
1711 2 14.3668844767 9.3506177403 3.17046642971
1716 1 14.1926697893 7.71559728125 0.877882217083
2002 1 18.424404889 7.48129207649 2.82510089173
1673 1 15.6217405815 9.6718304816 1.05860590739
1674 1 15.6129049715 7.40829012196 2.87756268518
2039 1 16.9733270791 9.39982373068 3.1157828686
2044 1 16.9375555892 7.62124524847 0.835935358629
2001 1 18.2548653937 9.54635675748 1.06410529408
2334 1 19.7940451674 7.64825884385 0.765881891496
2367 1 19.8980615798 9.3928215577 3.04816972653
2372 1 22.5412803121 8.04914420543 0.401716010748
2329 1 21.0953844296 9.66326208556 1.02815338433
2688 2 21.8779282176 10.8700203436 3.22423442449
2323 1 22.9722273261 8.87585292894 3.13815647573
2421 1 23.1042765885 10.8362034903 1.13163535124
2059 1 24.6291407087 8.79083999276 1.41665342482
2657 1 25.8931949531 8.91220005416 3.41781072323
3022 1 25.944351535 10.7641338478 1.24430800812
2643 1 24.45304089 10.889616722 3.24142233907
2979 1 27.2759551677 10.8795962168 3.21089687623
2985 1 27.2213217024 8.6583301651 1.30029674222
3307 1 30.0443288465 10.8056368872 3.0634959249
3313 1 29.9824373697 8.59452187008 1.25610612949
3350 1 28.5968857169 10.6335417296 1.07027923204
3351 1 28.6317788768 8.81947939511 3.30644254805
3635 1 32.8054689294 10.7824689039 3.05809992569
3641 1 32.7677878709 8.56449276654 1.24239362267
3678 1 31.3892425311 10.5856001671 1.02998053151
3679 1 31.4081541865 8.7794038882 3.27009541952
4007 1 34.1758368017 8.75844876258 3.26654772392
4006 1 34.1681813438 10.569940859 1.03529084941
3963 1 35.566246347 10.7827664921 3.06312194423
3969 1 35.5564591705 8.56498298234 1.26038278283
4334 1 36.9519271502 10.5888411689 1.05996312283
4335 1 36.9382941085 8.7969913274 3.28279105592
4291 1 38.3584729151 10.8100057394 3.0763019872
4297 1 38.3358243377 8.60096992558 1.30132774922
4619 1 41.2040975401 10.8809770347 3.16909180915
4625 1 41.1302829204 8.6658473972 1.34614214899
4662 1 39.7397445496 10.6104357844 1.10287364241
4663 1 39.7769212542 8.86451312704 3.32040595616
33 1 45.6065473512 9.17133922464 3.12054699805
71 1 43.9812890802 8.60086341493 1.31845927447
4953 1 42.5434935039 10.6595950657 1.10860005377
4991 1 42.6316473308 8.9464796406 3.29137190358
129 1 45.0966990614 10.5622989672 0.957879216508
398 1 3.3412630829 11.5763751375 1.16878120825
128 2 1.35617409034 11.3877191085 0.362910898542
399 1 1.35683087143 11.2526977686 2.96349055309
391 1 2.83359421095 13.3487149766 3.24825217731
453 1 1.83432113203 13.6890362831 0.749665558004
63 2 0.241096442703 13.3959996043 2.61731104237
354 1 4.49163710417 13.6311229095 1.4224122238
355 1 4.33879235212 11.3923898634 3.27203176388
682 1 7.18646809017 13.6428240823 1.43826178289
683 1 7.23938976674 11.4120489263 3.3063874659
726 1 5.84714309078 11.5680896168 1.33626206963
719 1 5.79799791143 13.3989937326 3.46039025256
1010 1 9.99344675157 13.7163528497 1.45369970963
1011 1 10.0716216399 11.4334298216 3.26553237217
1054 1 8.65098483815 11.6728914404 1.31088939493
1047 1 8.62362351118 13.4266478228 3.45304236496
1382 2 11.2730995825 11.8210362778 1.13314129865
1375 1 11.4550367314 13.4137546105 3.4372929603
1338 1 12.8334165543 13.6661984709 1.45563308961
1339 1 12.8130475183 11.3546800563 3.18218172425
1710 2 14.3852999278 11.7936345817 1.16422008227
1703 1 14.2081988597 13.3976109768 3.42711103592
1666 1 15.6879879494 13.7374563008 1.47206503878
1667 1 15.6140868055 11.4398855173 3.273406447
1994 1 18.4339483626 13.6524936091 1.4409255733
1995 1 16.9631608951 11.67917963 1.2391508313
2366 1 18.2708203678 11.3712972514 3.2470628495
2031 1 17.0224378137 13.4345333197 3.48087244996
2359 2 19.4520236443 11.3965616864 1.13036211119
2679 2 19.5851389448 13.1799745257 3.5956422785
2381 2 22.2201043161 13.2307076095 0.9582546118
2642 1 25.8514352838 12.8545954853 2.95737929217
2382 1 24.4699143903 12.8387092932 1.00682820341
2694 1 23.1342417206 12.9278668894 3.20011037297
2978 1 27.3151832714 12.7183820615 0.936540358615
3306 1 30.0248378062 12.6177121086 0.839183406125
3343 1 28.6972847075 12.8498631831 2.89825991268
3634 1 32.8026100865 12.5842350303 0.824599214727
3670 1 31.4363007376 14.6040531973 0.610992356966
3671 1 31.4464763084 12.8036178065 2.85410113254
3999 1 34.201372509 12.7950459033 2.85054660902
3998 1 34.208266465 14.591109972 0.604846589206
3962 1 35.5739718806 12.5843119061 0.827866778536
4327 1 36.9612398815 12.7803108962 2.84554844441
4326 1 36.9683346432 14.5913867298 0.594800901272
4290 1 38.3704324973 12.6019042147 0.867254543707
4618 1 41.050862483 12.6224688027 0.753793827174
4655 1 39.8289671678 12.8159827762 2.89560332313
4946 1 44.0559782139 11.0512045922 3.11642745784
4938 2 42.461480433 12.8795269375 2.45143816628
4990 1 43.9566719186 12.6928960691 0.803079638101
390 1 1.31466883263 15.3059892453 3.004882192
83 1 1.20267028907 16.5633803381 0.536302981974
26 2 3.15301245298 15.5952003953 1.78501583581
345 1 4.48573924366 17.6317227259 1.9736384919
673 1 7.1984431582 17.6552540407 1.96343982945
718 1 5.8156251776 15.6434498507 1.68746525626
1001 1 10.019717097 17.67286975 1.919026516
1046 1 8.60103043485 15.6673950151 1.66888834431
1374 1 11.4449860136 15.6798567267 1.68197975524
1329 1 12.8411904816 17.7198155853 1.91373237194
1702 1 14.2223849548 15.6932071152 1.68461958002
1657 1 15.6501136767 17.7382201104 1.89342554408
2030 1 17.0324723452 15.7322642165 1.68500975552
1985 1 18.6798394595 17.8985191072 2.0420334042
2869 2 19.4678457842 15.7862406306 1.68213886612
2542 1 20.0987344359 18.0206383935 0.0541045045233
2314 1 20.3987391179 16.7910237563 3.52913961045
2635 2 22.1549483595 15.1433033935 3.38661604044
2870 2 22.1042955614 16.5193979771 0.305023674319
2866 1 24.5605823777 14.9164744683 2.84881369307
3014 1 25.8850654704 14.6989999129 0.720090331473
2678 1 23.1259763024 16.8707227818 2.50385434624
3006 1 25.8647667619 16.8714880686 2.44956003102
2641 1 24.4687024326 16.5920214758 0.432517772258
3342 1 28.6610323854 14.6776885732 0.656032975612
2970 1 27.2600690859 14.859474541 2.72636584791
3298 1 30.0887918919 14.8278098866 2.65297459451
3297 1 30.0779886423 16.6312110245 0.392901782875
3334 1 28.7119453248 16.7977893037 2.43241470226
2969 1 27.2499840135 16.692006904 0.447437766259
3626 1 32.8376732557 14.8102644595 2.62788619025
3625 1 32.8429800894 16.6060621256 0.379504695329
3662 1 31.4735986539 16.8328488844 2.40798477308
3990 1 34.2361254121 16.8162729652 2.38989277105
3954 1 35.6069564826 14.7977634742 2.61938629468
3953 1 35.6099525092 16.6010060211 0.372256972925
4318 1 36.9932036809 16.8137659047 2.37809416126
4654 1 39.6879464687 14.6308978332 0.563040952446
4282 2 38.3652400788 14.7766806793 2.62413230105
4610 1 41.0898795471 14.8921988729 2.47669067828
4646 1 39.6932969234 16.8292972258 2.33329464394
4609 1 41.1107168954 16.623023759 0.339743648675
4281 1 38.3349513931 16.6330323226 0.324170737547
4982 1 42.5217126318 14.6352446925 0.542637348107
125 1 45.3018777669 14.7311465547 0.646483582294
27 1 43.914757582 14.9021642979 2.52578712494
62 1 45.2235270824 16.8919476683 2.3624675535
4974 1 42.4653763399 16.8501642697 2.36851951406
4937 1 43.8625945566 16.6474568373 0.386173251009
17 1 0.921483974036 18.774049304 2.30262301213
573 1 3.12378390004 19.612318324 2.14589650428
244 1 1.74054719399 21.561608817 2.41468943918
205 2 1.00032588956 20.4403657329 0.296806498449
572 1 3.08271363241 21.7440187643 0.334959903
861 1 7.21612707733 19.862625308 0.194941262611
901 1 5.83329620634 19.6593042366 2.25761839991
859 1 7.20984077833 21.6844958103 2.41010433597
531 1 4.43015944771 21.6493130398 2.40431413767
900 1 5.85205057103 21.8858780446 0.374669225119
533 1 4.62055412564 19.882723481 0.17847724157
1189 1 10.0364933414 19.8904715269 0.192050219824
1229 1 8.61148371938 19.6697592052 2.20088645636
1187 1 10.0057709909 21.6922765622 2.37824615721
1228 1 8.61627374585 21.8858927633 0.369014770072
1557 1 11.4090617655 19.6774264161 2.16007389624
1517 1 12.813037542 19.9451348426 0.148939058875
1885 1 14.2268221606 19.749767094 2.12602219557
1515 2 12.6724815004 21.7181186335 2.34120772805
2213 1 17.0448720382 19.728424511 2.05169110529
1845 1 15.619952599 19.9617485458 0.115239448901
1843 2 15.7698685 21.7307730755 2.356361326
2173 1 18.5712358187 19.994755828 0.117780211829
2171 1 18.3171532542 21.7826802799 2.27919098217
2313 1 21.6466291759 18.6170880322 1.9962817113
2828 1 20.0593072244 20.2474870678 2.04986351898
2500 2 24.3458341107 18.7352618786 2.11618225311
2868 1 23.0543968632 20.6530841127 1.87578819365
3196 1 25.9036034 20.6310084349 1.80392755845
3198 1 25.8192339561 18.6507776054 0.166194818219
2829 1 23.041642269 18.5283067945 0.0151611362888
3157 2 27.4494965256 18.7117717425 2.2890710585
3485 1 30.0995624029 18.8315481736 2.17844657179
3524 1 28.6933262688 20.7874114992 1.91851170003
3526 1 28.6870886874 18.616397656 0.172920133043
3854 1 31.4779896379 18.621858301 0.156793920102
3813 1 32.873953077 18.8414622077 2.16715931783
3852 1 31.504453424 20.8526498815 1.92150910696
4182 1 34.2386928238 18.6195210027 0.139839374381
4180 1 34.262298357 20.8575898122 1.91857320607
4510 1 36.9902469175 18.6330781341 0.125860495473
4141 1 35.6255961558 18.8334265027 2.14711506274
4508 1 36.9840579504 20.8855564889 1.89784810794
4797 1 41.0711126406 18.843329034 2.11675183239
4469 1 38.3617447791 18.8463539559 2.14088751868
4836 1 39.7418667498 20.8874271141 1.87815535134
4838 1 39.7319300047 18.6386026362 0.105779693623
245 1 45.1695169389 20.8324816499 2.09915713666
5125 1 43.8063170086 18.840250432 2.15992317463
5164 1 42.4868799494 20.8789368529 1.91799974633
5166 1 42.5090067239 18.6363942942 0.12481659553
246 1 45.324396018 18.51971476 0.187941856156
569 2 3.05691000626 23.6730318181 2.69639661069
627 1 1.79615230812 23.7134759071 0.628859237929
198 1 1.54879445686 25.5527434822 2.89986223103
5122 1 0.358149351371 23.4499826144 2.69221804072
530 1 4.43558058476 23.8026513649 0.593916063575
858 1 7.23012618303 23.8821061725 0.589800420969
897 1 5.79474814069 23.6939323393 2.61608487018
1556 1 11.3974196926 21.937313456 0.350873439213
1186 1 9.9871169261 23.9361134054 0.556660403088
1225 1 8.61773437158 23.6939330637 2.58763086793
1553 1 11.3943348114 23.7324128591 2.56708875158
1884 1 14.2172999781 21.9419036391 0.38061528577
1514 1 12.8173745395 23.9384066134 0.573653143808
1881 1 14.217748981 23.6939073938 2.56270398605
2212 1 17.0282329063 21.9475639384 0.274839236731
1842 1 15.6065902126 23.9464761961 0.571158804598
2170 1 18.3571651879 23.9868029157 0.510313451645
2209 1 16.9933918855 23.7517041645 2.57183935036
2540 1 19.9199746877 22.1354580937 0.232124077183
2495 1 19.6800966974 23.770843509 2.42911806669
2537 1 21.324545387 24.261856638 0.217930064935
2494 1 21.5922549539 22.4791098985 1.95767647813
2531 1 21.5113230351 25.2576286694 2.94717773815
2923 1 23.2817133679 24.6432936812 1.46082156521
2826 1 24.5269567569 22.6151472812 1.65938571338
3192 1 25.9065313633 24.6887650778 1.47887967353
2859 1 24.445351049 25.0716361029 3.44860293635
2822 1 25.8763167989 22.9468526846 3.60980787872
3154 1 27.2620045137 22.6763449446 1.62625648454
3478 1 30.0477866386 25.0179972126 3.43650573964
3482 1 30.0888655253 22.8114620066 1.66555598349
3520 1 28.6498164133 24.7725768468 1.43400834464
3150 2 27.2960944819 24.9593465474 3.44003405027
3521 1 28.6577583474 22.9650301386 3.62063295689
3806 1 32.8505765462 25.0839421228 3.47146917403
3810 1 32.9145548609 22.8705060371 1.65685558361
3848 1 31.4818395883 24.8412467134 1.45055389701
3849 1 31.5110184875 23.0496769261 3.64081379391
4176 2 34.2585680795 24.9964789727 1.53956247594
4134 1 35.6577585228 25.1179839409 3.49267628717
4138 1 35.600662892 22.8995961041 1.67803536738
4504 1 37.0110890104 24.9061871097 1.46092078905
4462 1 38.433555245 25.148551925 3.44680461036
4466 1 38.391189873 22.9136356534 1.68063362026
4790 1 41.2589898919 25.192483438 3.39519604315
4794 1 41.1900123558 22.9255161014 1.67639827553
4832 1 39.8401175684 24.9339305404 1.43857292077
242 1 45.5403929221 25.0465074625 0.986663112062
5160 1 42.6488332031 24.9650181695 1.3816557706
5161 1 43.8814460521 22.9386024913 1.80245485536
5118 1 44.2358137135 25.2299718271 3.13373612498
5190 1 45.4887720562 22.4594754989 0.156577015115
568 1 2.99450816283 25.7171682152 0.921243909
563 1 2.88079378737 27.6938658287 2.80350200248
197 2 1.00663526458 26.9771561388 1.08563062019
289 1 0.0274635845993 29.145919115 1.00169824474
526 1 4.39455408665 25.7324590551 2.8345902567
525 2 4.50950502121 27.6588671179 0.974146286202
853 1 7.12436664533 27.9255795609 0.923356917768
854 1 7.22163632008 25.6929137818 2.80238569313
891 1 5.82409165738 27.688118359 2.98960670073
896 1 5.83716243077 25.8216976019 0.813303144325
1181 1 9.98847867922 27.9337836278 0.960685317058
1182 1 9.999941504 25.721567294 2.7594055892
1219 1 8.58545133104 27.722125889 2.95535050579
1224 1 8.55458012058 25.9373235408 0.738145324867
1552 1 11.405487455 25.9412567063 0.762105019905
1547 1 11.4258408746 27.7184570762 2.97735679585
1509 1 12.8273447498 27.9573459979 0.988568816496
1510 1 12.83456771 25.7064437947 2.77331467281
1875 1 14.2474599242 27.7407024984 2.99858269355
1880 1 14.2291256613 25.9556120667 0.784996751991
2166 1 18.3920365284 25.7049483728 2.8638582247
1837 1 15.6689476073 27.9962393281 1.03251264007
1838 1 15.6224181436 25.7343958191 2.79372132769
2165 1 18.4622198223 28.0061350987 1.09179459256
2203 1 17.1350976451 27.7689934273 3.05577682292
2208 1 17.0128757936 25.9915950713 0.807670597836
2536 1 19.7126957387 25.9976385822 0.86658936113
2589 1 20.0865165249 27.2832606362 3.11672713055
2814 1 21.152424331 28.7218865823 1.36329034582
2551 1 21.9602057857 26.6202861733 1.00366644789
2487 1 22.9638508017 27.1238805332 3.21363582553
3186 1 25.8677848494 28.7915681464 0.984763772826
3251 1 24.564787099 26.695729398 1.26018576395
2488 1 24.6936596711 28.9867835545 3.19267844676
3187 1 25.9586425279 26.9440924552 3.27645455334
2851 2 23.4997258666 28.6725251483 1.39723891991
3149 1 27.2221463192 26.7777234924 1.20409534829
3471 1 29.989578669 29.0501278181 3.00592868849
3477 1 30.0205108995 26.8173852971 1.22404518532
3514 1 28.5813327401 28.8188522399 0.990203991773
3515 1 28.6297558236 27.0291976326 3.22401811496
3143 1 27.2117906543 29.0249557356 3.02960272887
3799 1 32.8125359108 29.0823796278 3.01516474571
3805 1 32.8288482326 26.8915280447 1.2358149681
3842 1 31.4035896335 28.8549235653 1.0040127761
3843 1 31.4167790181 27.0606447924 3.23103370884
4171 1 34.2438992119 27.1074944395 3.24957393234
4170 1 34.2485614819 28.8912040513 1.02878400345
4127 1 35.6531548136 29.1178926411 3.04962495356
4133 1 35.672354549 26.9287977134 1.25420346255
4498 1 37.0881703329 28.9185669472 1.0557125192
4499 1 37.0580871168 27.1381772944 3.27332157834
4455 1 38.4801732061 29.1476952686 3.11803621097
4461 1 38.4623041597 26.9217267606 1.26904265743
4789 1 41.2868384402 26.9784985755 1.24925588159
4826 1 39.8679196728 28.9514323378 1.12778856492
4827 1 39.8931217326 27.1752926001 3.27491086647
4783 1 41.335866371 29.1887328183 3.13261290365
241 1 45.6389935574 27.3551300395 3.0785686888
240 1 44.1077020059 27.0381205857 1.14229157166
5154 1 42.7478756419 29.0349303929 1.16953953609
5155 1 42.7864752958 27.2288523408 3.19908166239
191 2 1.35552687155 29.5562707434 3.15653216749
293 1 3.28292641996 29.8086732628 1.36128734414
227 1 1.54333721796 31.4993205577 1.20577155843
555 1 2.99352060009 31.5974343134 3.15157997003
518 1 4.36099977972 32.0538789543 1.12049715882
519 2 4.56925408062 29.6863482184 3.40381371517
846 1 7.26391081787 31.9324794589 1.43777122688
847 1 7.19935542631 29.716635394 3.19367126305
890 1 5.77096919535 29.9349655569 1.2159574541
883 1 5.77257172298 31.7303320621 3.31461151475
1174 1 10.0137456033 31.9456586957 1.41289544
1175 1 10.0233940218 29.715502452 3.1956219982
1218 1 8.58207766355 29.915842826 1.19103589405
1211 1 8.64228282929 31.7132838451 3.42029065104
1546 1 11.4131298663 29.9480337291 1.19967424601
1539 1 11.433561165 31.7388327393 3.42553724562
1502 1 12.8322202148 31.9670194833 1.44482938676
1503 1 12.8403581669 29.7367619735 3.20909031337
1874 1 14.2508918975 29.9781302847 1.23240504756
1867 1 14.267087394 31.7429195008 3.44599307828
1830 1 15.6508355667 31.9808769666 1.46973337933
1831 1 15.7069261282 29.7388891271 3.24330980622
2158 1 18.4754280346 32.1121010275 1.43050998972
2202 1 17.0738050872 30.0377960984 1.27753989222
2159 1 18.7188848265 29.6919328905 3.21478993912
2195 1 17.1293980741 31.6970316716 3.45671412582
2530 2 19.5532547351 30.1160502686 0.895748557953
2486 1 21.4240847802 31.5615789344 0.888364915912
2703 1 22.1003905283 32.7988929653 3.37398876721
2523 2 19.7039318865 32.0870807041 3.5083497921
2806 1 22.9310627329 30.6788759617 2.74526453708
2815 1 25.84457994 31.0798309624 2.88741533911
3179 1 24.4693598369 30.8553951154 0.888544975751
3178 1 25.8478259075 32.8732292577 0.578493940662
3142 1 27.1497676255 30.8285412018 0.775945417853
3470 1 29.9622008696 30.8450759817 0.767613994186
3507 1 28.5745030804 31.0513549464 2.80580705983
3506 1 28.5500465564 32.8481962728 0.541082266492
3798 1 32.8172865729 30.8681850404 0.797790140339
3835 1 31.3838981925 31.0698077803 2.79129509121
3834 1 31.3971836244 32.8563728467 0.567851806242
4162 1 34.2381838968 32.8781000551 0.595492956095
4163 1 34.2209454499 31.0961926677 2.80488407901
4126 1 35.6704146327 30.8981142705 0.823531429556
4491 1 37.0635064223 31.125079522 2.86559154192
4454 1 38.481088921 30.9391654631 0.88069114846
4782 1 41.3001339872 30.9641155129 0.921608711388
4819 1 39.9029082557 31.1426391876 2.9229843532
235 1 44.2530526265 29.296632215 3.05439507694
234 1 45.6729570663 31.397795739 2.97800925151
5111 1 44.2233256899 31.1112262691 0.987079126081
5147 1 42.7528549606 31.2348825432 2.91239315973
554 1 2.94734644614 33.8445420352 1.46520849224
247 2 1.17986557582 35.162566852 1.58836969267
226 1 1.39153190201 33.3760292197 3.19145039352
509 1 4.57153486578 35.8153536305 1.82184010129
837 1 7.20906405483 35.9633228021 1.83728330273
882 1 5.84190599468 33.8825063651 1.57410971004
510 1 4.32146188518 33.6826043028 3.50985873728
838 1 7.23641578458 33.6955147476 3.60292741817
1165 1 10.0364214591 35.9805735443 1.88050730508
1210 1 8.63772992721 33.9694154796 1.63242768586
1166 1 10.0353101328 33.7478349209 3.64281265055
1538 1 11.4300094009 33.9694710167 1.65729170536
1493 1 12.8366336893 35.9851117718 1.90107213165
1866 1 14.2355611165 33.9872208706 1.68437739182
1821 1 15.6319860232 36.0217809893 1.89112360328
2149 1 18.5677168738 35.9178753388 1.8780946963
2194 2 16.9121913179 34.0379411599 1.64059425534
2150 1 18.3709391481 33.8429940069 3.62331602929
2522 1 20.4522049581 33.6129604912 1.75299342835
2798 1 22.8211819082 35.0161769337 2.31017820005
2836 1 24.450841205 33.0065779491 2.62350446015
2850 1 23.1296966317 32.9606886728 0.644992462425
3170 1 25.8627384052 35.0567858382 2.30163103703
2842 1 24.4422533891 34.8578321694 0.402982613452
3462 1 29.9825012773 33.0651417099 2.5540658247
3134 1 27.1978810709 33.0625739638 2.61735781938
3133 1 27.1787913537 34.8829751851 0.277296311646
3461 1 29.9814184001 34.8597605123 0.31703706036
3498 1 28.5952668142 35.0729364437 2.29931179469
3790 1 32.8018901064 33.0861745324 2.58121402254
3789 1 32.8155014782 34.8699765761 0.359956070262
3826 1 31.3915484436 35.0862856339 2.33597425591
4154 1 34.2162177111 35.0995679385 2.37945477662
4490 1 37.0672215715 32.9153371835 0.627744661707
4118 1 35.6371586448 33.1067421343 2.61830164625
4117 1 35.6369695372 34.8929188623 0.381271077125
4482 1 37.0461074002 35.1091826429 2.39772838991
4818 1 39.8997714471 32.9471737308 0.663084018064
4774 1 41.2882698567 33.1329927354 2.7383437792
4446 1 38.4756111091 33.1254120325 2.66301725498
4810 1 39.8661639515 35.1305740034 2.41255606267
4445 1 38.4743157888 34.9204812727 0.386382172955
4773 1 41.3064738723 34.9453384016 0.387061629276
5146 1 42.7173106304 32.9770739864 0.767897620333
190 1 45.6647081765 33.1594165977 0.737662391492
5110 1 44.2152540594 33.3420992469 2.84134536429
5138 1 42.5317051797 35.1398576273 2.45405669259
5101 1 44.0245410602 34.9987978081 0.582787615105
40 2 3.12180552165 3.20741546902 4.43843456017
540 1 3.20841328654 0.983089770901 6.22823947638
174 1 0.629620358847 1.11419281895 6.30327786692
402 1 1.92248933786 3.13508774458 6.37815768069
406 1 1.93940587927 1.15820549034 4.28748159182
78 1 0.653605328676 3.22943669877 4.13868269445
407 1 4.56683984131 3.06008973808 6.30169369448
368 1 4.51845673637 1.13467454744 4.17404680478
692 1 7.18012139385 3.03374274577 6.36133131884
696 1 7.20113584658 1.20117488052 4.0825538421
735 1 5.91010836684 0.956142646175 6.09648898981
734 1 5.80116676041 3.26173961263 4.31207277156
1020 1 10.0112427498 3.02063869162 6.37422052483
1024 1 10.0162552838 1.20601135359 4.12794369751
1063 1 8.60216711144 1.00470122054 6.11862187316
1062 1 8.59457937031 3.20960584487 4.36325450622
1391 1 11.4302157626 1.00446011542 6.13083515014
1390 1 11.430526633 3.20429521163 4.3831991839
1348 1 12.834593621 3.02063845854 6.37988313743
1352 1 12.848526123 1.20963106146 4.14225418794
1719 1 14.2535732486 1.00299850786 6.14145880449
1718 1 14.2572660964 3.22822054226 4.39374022515
1676 1 15.6523258412 3.03694049749 6.41663039604
1680 1 15.6716818588 1.23379099359 4.14907716058
2008 1 18.4024957939 1.23666772075 4.16121367863
2047 1 17.0436972994 1.03142022168 6.20022907445
2369 1 18.5415974783 2.98559666437 6.45527255074
2046 1 17.0557622749 3.25217433457 4.42605194268
2333 2 22.0115936814 0.863264087571 6.13212710484
2698 1 19.7886385743 0.901170626027 6.18266307279
2697 1 19.7637186546 3.17703439075 4.38595272586
2325 1 21.481351586 3.02726997337 6.67347402792
2662 2 22.0731456414 2.93470585319 4.04257714634
2701 1 24.5040809547 2.8187581834 4.01680812283
3033 1 26.0363893575 0.844019931757 4.08898165993
2704 1 24.5312674596 1.01720226542 5.90805758017
3030 1 25.9063789715 3.0231925267 5.93133265399
2991 1 27.3278628859 2.82438971517 3.93157778773
2992 1 27.2976159999 1.02045065782 6.16425841597
3319 1 29.9658180173 2.77348347677 3.9303729092
3320 1 30.0210631516 0.959893103813 6.1529137538
3358 2 28.6386956175 2.92500791076 6.07572592858
3361 1 28.6189767628 0.746164647811 4.115888823
3647 1 32.7771876203 2.75310647934 3.92994732853
3648 1 32.7799435542 0.949458285905 6.15709498301
3686 1 31.37035086 2.96655162717 5.93353622094
3689 1 31.3724771354 0.76593194129 4.13391328589
4017 1 34.2037179421 0.745736703932 4.16045171586
4014 1 34.1978779223 2.93341160722 5.9444340961
3975 1 35.6088381535 2.75067496423 3.94163224071
3976 1 35.6126634532 0.922324020763 6.1849051284
4342 1 36.9829307006 2.89943706785 5.97172791408
4345 1 37.0401094631 0.753338185974 4.18646582961
4303 1 38.4142129466 2.80123867327 3.98972124744
4631 1 41.112984438 2.84653186585 3.99913908933
4304 1 38.4578523054 0.944379346872 6.21802532549
4632 1 41.069028954 0.874740353777 6.26765244211
4670 1 39.8272640145 3.02144658158 6.00079340297
4673 1 39.7924361116 0.75833945394 4.18297426785
218 1 45.2062536444 1.08565204429 4.21200810518
79 1 45.0362037854 3.11351307581 6.07214772325
4959 1 43.6222491581 2.94120173309 4.14956262076
4998 2 42.3883637265 2.70271794422 6.1089450155
5001 1 42.404543508 0.826382384788 4.2448712252
37 1 43.8043807543 0.97177103804 6.20187058368
401 1 1.42287561206 5.22182999975 5.21706588297
400 1 2.9370635828 7.25193683154 5.11916840168
393 1 1.36868815017 6.93497744581 7.1946084227
30 2 3.19789208923 5.31101046144 6.75275819485
72 1 0.0340579251701 7.16579093379 5.21117719297
363 1 4.30065046251 5.27993479032 4.5346554563
691 1 7.20975661265 5.2515277651 4.59163125578
729 1 5.82021989417 5.1045964426 6.57092182493
685 1 7.22645265113 7.07451269431 6.83780227388
357 1 4.46076786955 7.13072189265 6.93948245382
728 1 5.78472170779 7.24454686413 4.83444025129
1019 1 9.99105232459 5.17823667815 4.62027508767
1057 1 8.60410826247 5.03030103564 6.62507686418
1013 1 10.0199664393 7.01588565784 6.8611959827
1056 1 8.6614114515 7.24554526044 4.85962701453