ITEM: TIMESTEP
0
ITEM: NUMBER OF ATOMS
5248
ITEM: BOX BOUNDS pp pp pp
0.0 45.68
0.0 36.5618393957
0.0 36.5618393957
ITEM: ATOMS id type x y z
409 1 3.40218962701 1.46163185544 2.06895176571
41 1 1.46723072513 1.9691425191 0.0745768997011
39 2 2.0190696074 3.09900065072 2.28761152234
181 1 1.4383094388 0.09130747699 1.85366004371
697 1 7.22454665947 1.783800584 0.0945926365148
737 1 5.87916958216 1.54956864116 2.11422786331
369 1 4.55153843323 1.73968162192 0.0217991325933
695 1 7.24278162217 3.59088645969 2.35771984929
367 1 4.57407079563 3.59985976517 2.36769234647
1025 1 10.0423358062 1.7845644814 0.0801540361858
1065 1 8.64549731699 1.5704072671 2.11340678984
1023 1 10.0454808418 3.57969175414 2.34766705483
1393 1 11.4328573568 1.55211689429 2.13206945673
1353 1 12.8155923184 1.77169167297 0.106383468395
1721 1 14.2074993122 1.5503579746 2.16341794123
1351 1 12.8321005093 3.58662112145 2.3648382851
1681 1 15.622597459 1.77106797288 0.17075703265
2049 1 17.0121873952 1.56514108681 2.22256199882
2009 1 18.4190796464 1.80150854755 0.214548831282
1679 1 15.6189263833 3.58118165524 2.4193837558
2007 1 18.3961096232 3.54690508495 2.45760135569
2377 1 19.8575309834 1.56983244758 2.22096083577
2336 1 22.7798237881 1.9003737837 2.24592652133
2337 1 21.2773537759 1.93257103222 0.271374995895
2335 1 21.1156377264 3.60329043254 2.45908711666
3032 1 25.7527286881 1.94757253997 2.02306583242
2731 1 24.2216160066 2.02966837371 0.203890023804
2665 1 24.3016285798 0.0936617484615 2.22988470459
3034 1 25.6179756994 0.00782038250438 0.151693683036
3360 1 28.5013519249 2.20499857401 2.03594668085
3321 2 29.9746040073 0.226870295944 2.13250958373
3362 1 28.5135490269 0.0477156204495 0.140579827602
2993 1 27.176172376 0.0887499973875 2.15968319233
3059 1 27.1191029532 2.03361975748 0.0718537645777
3387 1 29.982127475 2.05459392689 0.0411722991811
3649 1 32.838908628 0.301171406737 2.17571704164
3688 1 31.4481990051 2.22548377315 1.98757277112
3690 1 31.4190419699 0.116394904049 0.161848789713
4016 1 34.1496454475 2.34532134953 1.94521478893
4018 1 34.1595456967 0.119440009208 0.142802705278
3977 1 35.5998254681 0.336105944173 2.14575650506
4344 1 36.9422905928 2.34585009463 1.87553540095
4346 1 36.9677048151 0.15712137126 0.104731973671
4305 1 38.3762844572 0.398002962285 2.06153550108
4672 1 39.7887594398 2.3568278951 1.80966998371
4633 1 41.278164348 0.436215827009 2.01318692302
4674 1 39.8191778807 0.197575027882 0.0680025201899
81 1 45.5199637329 2.22662440887 1.95501148866
5000 1 42.7501836284 2.43417815123 1.84140170796
4961 1 44.1169034673 0.308719244382 1.93075045315
35 2 2.00550229261 5.48843113749 0.40755220715
408 1 3.25536798631 3.68507706319 0.296969758888
36 1 3.00170925255 5.54020770672 2.68875212933
77 2 0.511342228509 5.51499055401 3.36931681937
366 1 4.45821062982 5.84821692464 0.691874143564
694 1 7.27057528412 5.83564273674 0.629702778226
733 1 5.84556581774 5.64475124435 2.6512752022
736 1 5.84546139952 3.83885991287 0.332906935693
1022 1 9.98724917002 5.76152201517 0.574326645565
1061 1 8.64389211654 5.59018307764 2.62028650982
1064 1 8.62515607094 3.78274674342 0.335546952836
1392 1 11.4435798482 3.78767856381 0.328121570192
1389 1 11.443863539 5.60223480673 2.5745176386
1350 1 12.8584043856 5.8070154705 0.592492167485
1717 1 14.2399141351 5.61496882251 2.60948276776
1720 1 14.2247749022 3.795129025 0.370225690452
1678 1 15.6611098143 5.78820616632 0.61883811883
2006 1 18.4015208711 5.8220820147 0.679444493839
2045 1 17.035305929 5.5961243042 2.66786035572
2048 1 17.0220980924 3.79594398833 0.428725602575
2376 1 19.7932521279 3.79221918166 0.4087676718
2373 1 19.7320043556 5.58539088507 2.67593409013
2387 2 21.0671041869 5.60719138551 0.812952213952
2767 1 22.7984972992 3.94155970735 0.636994283337
3029 1 22.6880921772 5.40926329423 2.7250683365
2663 1 24.5254647435 3.83229760039 2.48032928582
3028 1 25.8030448236 6.3256749213 1.58192607973
3095 1 25.6640466387 3.98163734169 0.0826116367383
2986 1 27.291634976 4.30339035303 1.80690437098
3318 2 30.029047966 3.94464771535 1.87068020352
3356 2 28.3668536017 6.41709839422 0.889636725386
3023 1 27.5827526361 6.70589085731 3.3040434748
3314 2 30.0549864565 6.66116672461 3.63192623412
3646 1 32.7005703414 4.31848206332 1.6779530298
3684 1 31.1819126111 6.26615142963 1.42233977755
4012 1 34.1069628274 6.31286233289 1.41572998376
3642 1 32.7217485561 6.53365282279 3.40530382876
3970 1 35.5304141608 6.55799185887 3.42736235684
3974 1 35.5315487338 4.3317697757 1.64577912485
4340 1 36.9077449824 6.33317621195 1.40414417539
4298 1 38.2747705112 6.56789209453 3.42655592249
4302 1 38.2855569625 4.31022882235 1.59986465409
4630 1 41.1410039011 4.34594816354 1.64444282408
4668 1 39.6294546146 6.32103231337 1.37652989917
4626 2 40.7933073942 6.46160574483 3.34659086969
4669 1 39.6748026835 4.51905966303 3.61391356897
4958 1 44.22622943 4.50406582275 2.04202241652
4996 1 42.460094055 6.36131271678 1.51630708588
4997 1 42.4329544804 4.68829908388 3.570071108
4954 2 43.7338367228 6.92665264465 3.42399329881
70 1 1.69178298142 7.60602955854 3.11754283156
38 2 0.307560483077 7.8454289324 1.15318329441
33 1 0.703688545172 9.84433827353 2.37333936802
404 1 2.84023671625 7.92053519349 0.909798845027
392 1 2.99624876499 9.72299946041 3.1845316029
362 1 4.35679907423 7.62416070561 2.86798963843
361 2 4.48587580205 9.81142752249 1.38287393055
689 1 7.22333085733 9.85572544243 1.04514005756
690 1 7.29157270388 7.63070601789 2.82613470186
727 1 5.87157118292 9.6142879452 3.1643866118
732 1 5.83912494671 7.84113915147 0.906138896057
1017 1 10.1547562693 9.83096692495 1.00333769258
1018 1 10.0495043145 7.60365724081 2.81114409634
1055 1 8.72588071595 9.63750093939 2.99167000379
1060 1 8.6624209621 7.87236116091 0.812031234445
1388 2 11.284807872 7.603773343 0.775850029728
1383 2 11.4521170885 9.57340507862 3.2271270398
1345 1 12.7311034553 9.75209799585 1.01563579459
1346 1 12.8363792231 7.61350928304 2.76718918148
1711 1 14.1940192811 9.61926981936 3.02999277994
1716 2 14.3882514737 7.80242080208 0.835839410365
2002 1 18.454704234 7.63184054698 2.86099645581
1673 1 15.6184080483 9.82970812991 1.06451665046
1674 1 15.6577914107 7.62252114841 2.86925051271
2039 1 17.0694617383 9.62889146449 3.06074372851
2044 1 17.0540398796 7.82616735295 0.846456499596
2001 1 18.4558933998 9.79843041557 1.05472160113
2759 1 21.2914561342 7.42452940751 2.90626959757
2334 1 19.9039279582 7.84488460778 0.85281374856
2367 1 20.0321711865 9.56647802222 2.92925119258
2323 1 22.6628967148 9.36924113049 3.09866116828
2372 1 21.9896684999 10.9162109108 1.09821869881
2695 2 23.9351056761 7.33991035542 2.96109870505
2715 2 23.9288674914 9.91564674986 1.2110201472
2657 1 25.7040868316 8.83103312191 3.01647418862
3022 1 25.9923204598 10.490844152 0.967802130868
2979 1 27.1975194449 10.7307880434 3.01696347661
2985 1 27.2654229723 8.35583213517 1.24675971317
3307 1 30.0737390484 10.6323039155 2.986246678
3313 1 29.9640700018 8.36283295638 1.17760505679
3350 1 28.6054891147 10.3879361467 0.976705274639
3351 1 28.6484550344 8.80160294695 3.27761563271
3635 1 32.7966839053 10.5820631812 2.98994445514
3641 1 32.7125413381 8.29228851707 1.19566603434
3678 1 31.4081529828 10.3492729582 0.967097776212
3679 1 31.3866807997 8.57973448148 3.1906786573
4006 1 34.1428116915 10.3497642922 0.96702730046
4007 1 34.1406883106 8.55293822165 3.19919295572
3963 1 35.5338835927 10.5859932691 2.98685167215
3969 1 35.5099271709 8.34130962406 1.18732595186
4334 1 36.9113977152 10.3807624226 0.962195051887
4335 1 36.9075707607 8.57559688296 3.20637089713
4291 1 38.2838872441 10.593335072 2.98782272312
4297 1 38.2748659925 8.36042748876 1.18840507271
4619 1 40.9831117898 10.5955694227 3.02259920122
4625 1 41.0011559942 8.31265716561 1.19564816958
4662 1 39.6565730654 10.3658345248 0.980306708453
4663 1 39.6418946471 8.58552691433 3.22209608832
71 1 43.7921147239 8.42962748784 1.38914415512
4953 1 42.2238593672 10.3251856965 0.983834459836
4991 1 42.2081753895 8.5645991776 3.25828107143
129 2 44.7341033874 10.5676132244 0.946189728495
4946 1 43.5784924513 10.5271820655 2.90359052381
399 1 1.56113087368 11.8316883771 3.60121669527
398 1 3.00261967464 11.73809126 1.50433912836
26 1 1.43448831169 14.2560921056 1.96902398267
128 1 0.7911209588 12.1058527106 1.09387907794
391 1 3.09343237877 13.6735798192 3.62287424401
354 1 4.42521773356 13.8084286733 1.61956974682
355 1 4.48102457801 11.6598774901 3.42068296777
682 1 7.26569378509 13.809743903 1.48315919343
683 1 7.29576470682 11.6130779569 3.23051972325
726 1 5.75286039792 11.8358934999 1.22196749089
719 1 5.94946902857 13.6235219317 3.48000752874
1010 1 10.0632081255 13.8386073838 1.48882164127
1011 1 10.1161492942 11.6296530232 3.21507925448
1054 1 8.69175509732 11.8055310465 1.22538096755
1047 1 8.70830328416 13.6104152913 3.47961008782
1375 2 11.4594653498 13.7209953354 3.62527264532
1382 2 11.4518454034 11.9406023132 1.15345844078
1338 1 12.8459118563 13.8231128617 1.50454436532
1339 1 12.7990880461 11.604152542 3.23863553879
1710 1 14.166578765 11.7598066115 1.26039201992
1703 1 14.2054014058 13.5749886951 3.51414100099
1666 1 15.6203055974 13.7449800447 1.50372399764
1667 1 15.6452381019 11.6077576583 3.26935103539
1994 1 18.4753167323 13.7366532607 1.45895496566
1995 1 17.0714593891 11.789701641 1.23656898095
2031 1 17.104615726 13.6140466386 3.52892033712
2366 1 18.5013896317 11.6246662199 3.28625913559
2329 1 19.8053239958 11.7883446777 1.26121168614
2687 1 21.345119821 13.6630974096 1.34829247782
2688 1 21.3196727367 11.5707774788 3.28986381088
2359 1 20.0233124645 13.6713783207 3.43496220245
2643 1 24.2568407453 11.1373152456 3.06006102398
2694 1 22.9889297555 13.2091328091 2.96670226584
2642 1 25.8081619591 12.8202892279 2.76367310288
3014 2 25.8409016087 14.2610157012 0.480655779724
2382 1 24.0996450507 12.5676933964 0.810788392515
2978 1 27.2465851479 12.4270670377 0.800178987673
3306 1 30.0527306375 12.3770522283 0.754549153631
3343 1 28.681700328 12.6294016882 2.77776779194
3342 1 28.6814845785 14.3623326723 0.529066971797
2970 1 27.3547517947 14.6208998537 2.58003854994
3298 1 30.0718856358 14.6237736845 2.55953624698
3634 1 32.8117607296 12.3866334021 0.753692600933
3670 1 31.4478629809 14.4025727092 0.549594423675
3671 1 31.4592839805 12.623493346 2.77350125594
3999 1 34.1887906079 12.6168736317 2.77116126935
3998 1 34.2084436646 14.427995618 0.541112928856
3962 1 35.5516402671 12.4007658574 0.744484145094
4326 1 36.9617669467 14.4406921066 0.523869345236
4327 1 36.9300809786 12.6226505891 2.76701555385
4290 1 38.3205352428 12.4169389596 0.748232628192
4618 1 41.0035434127 12.4003703787 0.752642233182
4654 1 39.7341487461 14.465355166 0.525210261587
4655 1 39.6603833615 12.6279253196 2.79385243621
63 1 45.0127022827 12.4491288498 2.77695535931
4938 1 42.286448109 12.6184568488 2.83901870909
4990 1 43.502886782 12.375817877 0.770933540988
4982 1 42.3569158395 14.388583225 0.530089998521
125 2 45.1356468454 13.8281387641 0.662918479709
27 1 43.7572754797 14.5262786195 2.5369708621
390 1 3.23968956003 15.942288246 1.93041867605
83 2 1.82723739077 16.1458864412 0.245094290995
17 1 1.33573916204 17.9773865599 2.10267074629
574 1 3.03722854944 18.1341251375 0.080618890476
345 2 4.55120483434 17.9529154138 2.0079269895
673 1 7.2588658712 17.8584225978 1.94019076467
718 1 5.84036542252 15.8340105105 1.72594224291
1001 1 10.0685212217 17.8501748508 1.95486740426
1046 1 8.66458812384 15.8342681547 1.70513930836
1374 1 11.459880411 15.8326234599 1.72758075409
1329 1 12.8519218376 17.8288481366 1.95510795032
1702 1 14.246526284 15.7996708843 1.73094878599
1657 1 15.6574162375 17.777698823 1.97088228697
2030 1 17.0063626493 15.6816820401 1.76136585448
1985 2 18.3057264506 17.4173883748 2.1723083429
2869 1 21.9773624024 15.6660595868 2.75537005123
2358 1 19.7723070428 15.5965350272 1.83687217044
2313 1 20.6883468788 17.9396200634 1.81796798886
2870 1 21.3336452595 16.1721807504 0.152474811522
2678 1 22.9912324375 17.3796747944 1.64342781469
2381 1 23.5356601008 15.1568892029 0.651214329332
2866 1 24.5809383758 14.9581609231 2.63556288176
3006 2 26.3324609741 16.6551469902 2.49679380251
3198 1 25.7400177357 18.1393110175 0.363764180807
3297 1 30.0645849935 16.3872833105 0.340851384245
3334 1 28.7601741104 16.6272230012 2.36796264035
2969 1 27.3100241449 16.3163132291 0.347871547781
3626 1 32.8376640199 14.6479097442 2.55504078138
3625 1 32.8377316056 16.4425300274 0.334273202948
3662 1 31.4648660159 16.656043056 2.35604081362
3990 1 34.2294054477 16.6818730685 2.34504395973
3954 1 35.5838605276 14.6567333358 2.54675911077
3953 1 35.6038387342 16.4639704345 0.319422342058
4318 1 36.9803289299 16.6790199621 2.32667310999
4610 1 41.0402317624 14.6567629321 2.57921311749
4282 1 38.3218924887 14.6577088478 2.54264127707
4646 1 39.7248416973 16.6521510486 2.31748351917
4609 1 41.1416531965 16.4958474719 0.327354563682
4281 1 38.3720245642 16.466980946 0.296457449311
62 2 45.3559626596 16.2372768089 2.7986146639
4974 1 42.551202195 16.6137002946 2.39732095928
4937 2 43.5259244498 16.2394058125 0.20522294196
573 1 2.84083029887 19.9796894713 2.17704049653
205 1 1.37314386926 20.0982227311 0.112494684879
533 1 4.36272010719 20.1103588196 0.223177058006
861 1 7.23635844682 20.0792319325 0.183887181317
901 1 5.85057117594 19.8865157323 2.18216654685
531 1 4.44329010373 21.8441487839 2.32466310531
859 1 7.23829735239 21.8379316734 2.39677474788
1189 1 10.0766848517 20.0743243617 0.193936880888
1229 1 8.65891624155 19.8550626403 2.18747154156
1187 1 10.076794621 21.8476793283 2.42371887539
1557 1 11.4530158867 19.8515767063 2.18358854789
1517 1 12.8530535135 20.0701747799 0.189263432724
1885 1 14.2672051728 19.8219676758 2.18011864133
1515 1 12.8495857761 21.8297270872 2.41524322608
2213 1 17.0028057487 19.7688165163 2.13397351851
1845 1 15.6450522124 20.0509783609 0.163550600003
1843 1 15.6205852726 21.8185482964 2.40650127044
2173 1 18.3535915165 20.1812043487 0.0341272912573
2171 1 18.4117217344 21.8126716116 2.42729417808
2541 2 20.2233142371 20.3756166785 1.59533465301
2868 1 22.3571439869 19.7734110764 1.82526566144
2501 1 21.9295994941 21.2987593282 0.0117230061773
2500 2 24.3249689104 18.9366182596 2.4476649997
3196 1 25.8483660586 20.5166703026 2.07948607827
2895 1 23.9387879292 19.787683914 0.0598785258855
3259 2 25.5343124535 21.5611344689 0.106866810254
3526 1 28.6687645428 18.3489420996 0.113248780133
3157 1 27.4401896376 18.6738994151 2.13727848682
3485 1 30.0777237096 18.6586880274 2.14626285222
3524 1 28.7349523558 20.701918975 1.96439721241
3223 1 27.3613436011 20.2994763747 0.0740763955356
3854 1 31.4458230282 18.42652639 0.120252218428
3813 1 32.8586078702 18.6928535572 2.13535532222
3852 1 31.4645234186 20.6781867351 1.93878081884
4182 1 34.2330660762 18.482588254 0.118492196779
4180 1 34.2691999189 20.7432279512 1.91983950554
4510 1 37.0111885348 18.4912877294 0.096967053281
4141 1 35.6403382387 18.71643764 2.1271719052
4508 1 37.0340353503 20.7568876197 1.91803855026
4797 1 41.1438963758 18.5996616289 2.05110771402
4469 2 38.398155413 18.7017067122 2.09790436252
4836 1 39.8363863571 20.7285773941 1.86232796356
4838 1 39.8037040025 18.4686850376 0.0619591509678
5125 1 44.1273184709 18.4339923517 2.78302262534
245 1 45.5896653849 20.1978603831 2.46270049162
5164 1 42.5975063428 20.5405812537 1.8762669321
5166 1 42.7350758805 18.4629966212 0.230284086831
246 2 45.3048006414 18.6601369559 0.758828485766
572 1 2.88614869689 22.0629805919 0.165827220595
244 1 1.10329842194 22.075597109 1.55864011071
569 1 2.77695843073 23.5139505422 2.76086640533
627 1 1.31304276947 24.2316368798 0.244960956761
198 1 1.34225337747 25.4473641263 3.25795431625
568 2 2.79855790997 25.4903797669 1.50759483192
530 1 4.29949825501 24.0411964533 0.549976721691
858 1 7.2295863732 24.0206172946 0.60417647252
897 1 5.82737762267 23.7849406233 2.60983912196
900 1 5.79235702926 22.0784933821 0.347488308243
1228 2 8.66454622093 22.0703051183 0.399116108865
1186 1 10.0575488679 24.1058208837 0.610749009356
1225 1 8.66273107108 23.8149956458 2.61439461684
1556 1 11.463087694 22.1036297262 0.419587030267
1553 1 11.4763881509 23.8592257787 2.60457139489
1514 1 12.8796469881 24.1265597044 0.623872424121
1881 2 14.2155731154 23.7661184805 2.71175810356
1884 1 14.2274687554 22.0724166497 0.399840445807
1842 1 15.5349561796 24.1305356392 0.625553959441
2170 1 18.2671621513 24.077203799 0.623965792394
2209 1 16.9378154808 23.838767533 2.63590441188
2212 1 16.9544279171 22.1020331005 0.401537038786
2494 1 21.3318849589 22.1039452448 2.51391275962
2540 1 19.6953444586 22.1554715232 0.283471558681
2495 1 19.5746127002 23.8879074791 2.68818673012
2537 1 21.0351580215 23.942189504 0.795942245477
2923 2 22.2900239044 24.2855912784 2.83986721187
2826 1 23.6030968854 22.3481063398 1.43162669693
3192 2 25.2944299423 23.9171982231 2.26388543026
3154 1 27.2208283513 22.6688624295 1.68919126274
3478 1 30.0738211105 24.8879643162 3.58596555854
3482 1 30.1000563085 22.6851886645 1.79504538793
3520 1 28.7568804965 24.682205693 1.59974214375
3150 1 27.1068487307 24.8365459439 3.53435772366
3806 1 32.848285213 24.9214809328 3.52242638688
3810 1 32.8317763273 22.6964810411 1.72213520504
3848 1 31.4171550597 24.7161159553 1.51463876141
4176 2 34.1138668691 24.7057437713 1.49387286234
4134 1 35.6943820083 24.8873853895 3.42817186648
4138 1 35.6927225699 22.7835574085 1.72405740424
4504 2 37.2364922085 24.8424152134 1.39453798888
4462 1 38.4902832368 24.9575662808 3.50922858209
4466 1 38.4579954324 22.7341514198 1.71980854977
4790 1 41.2426859927 25.0384103401 3.58924243936
4794 1 41.3505881421 22.7096472518 1.71521015212
4832 1 39.8826623314 24.7482908549 1.53254243334
5122 1 45.509418205 23.4793475734 3.22455693893
242 2 45.4455603124 25.3910079798 1.61398053425
5160 2 42.3731509656 25.0076316152 1.64183059229
5161 2 44.1602181075 22.2358945493 1.51406522258
5158 1 42.8899386652 22.905699433 3.63139774311
5118 1 44.020166114 25.3190779702 3.52242612817
563 1 2.86287137398 27.4170368202 3.05794948712
197 1 1.30042981111 27.1752531142 0.860492223025
562 1 3.15080131357 28.9094129064 0.7072145313
191 1 1.33492025344 29.1392811065 2.6473457997
526 1 4.4337710137 25.6570379645 3.00474176767
525 2 4.86841567521 27.8441903457 1.44483610608
853 1 7.16121912481 28.0688137779 1.06681639361
854 1 7.27549815487 25.7460375437 2.90093509295
891 1 5.88600540476 27.6869685002 3.32965432192
896 1 5.89435052123 25.9345805829 0.857570269695
1181 1 9.974822087 28.0870990509 1.03327193082
1182 1 10.0349488747 25.8539059667 2.81833775753
1219 1 8.56744630006 27.8440289901 3.06175726853
1224 1 8.57681271871 26.0662428307 0.829331303325
1547 1 11.4126730485 27.8765222694 3.02986553048
1552 1 11.4585667908 26.0994462446 0.803561431568
1509 1 12.8007923875 28.1507521245 1.01738997966
1510 1 12.8378246798 25.8756881086 2.81904015516
1875 1 14.2233866076 27.9115893138 3.01453313511
1880 2 14.2075709725 26.3148698247 0.838847081166
2166 1 18.2500014383 25.8740303613 2.84821748907
1837 1 15.6722917984 28.1739161723 1.01035498812
1838 1 15.5884394455 25.8815499066 2.81438262085
2165 1 18.3923703168 28.0476245596 1.01192981505
2203 1 16.9542942358 27.907564162 3.02352580003
2208 1 16.9343123219 26.1019710082 0.781559647656
2531 1 20.7852392962 25.9357546291 2.96692281275
2589 2 19.4278654555 27.7984073347 3.32105254484
2536 2 19.6945644571 25.9243687938 0.735886032777
2551 1 22.1754045009 26.0826489523 1.05065479314
2487 2 22.1629905222 29.1969076952 3.00362586885
2859 1 23.0327141378 26.9541691534 3.2631483234
2851 1 23.1306483727 28.5295344113 0.97870719782
3186 1 25.9830979431 28.4217770234 1.09498374754
3251 2 24.415824102 26.8208718522 1.5357332731
3187 1 25.7658843444 26.9734703281 3.52250973402
2488 1 24.3871383 29.0052512109 3.18261779103
3143 1 27.2234840685 28.9605863881 3.10106317196
3149 2 27.4741284244 26.6676844203 1.65308039281
3471 1 30.0050583924 28.9703787952 3.07521303501
3477 1 30.040478192 26.7227561391 1.31381387999
3514 1 28.5682246179 28.6590291873 1.05850603429
3515 1 28.6964354493 26.9189135429 3.45197092321
3799 1 32.8821184803 28.8896720664 3.07618249286
3805 1 32.8390823581 26.7079303267 1.29411615304
3842 1 31.4669012807 28.6863405322 1.1125421495
3843 1 31.4251181363 26.9266323167 3.30825867183
4170 1 34.2678180835 28.6806533428 1.05432300209
4171 1 34.2884523624 26.8826856482 3.26964254406
4127 1 35.6829758445 28.9107401072 3.0430649296
4133 1 35.6658025091 26.6948904533 1.2650601282
4498 1 37.0814156631 28.7323712634 1.04016056572
4499 1 37.0637980667 26.9009370549 3.24171871954
4455 1 38.4302736162 28.9686689874 3.02875796978
4461 1 38.5679363836 26.8055764913 1.30347712499
4789 1 41.2177763882 26.9148546161 1.34117650371
4826 1 39.8983091199 28.8698124128 1.10265323959
4827 1 39.8631134778 27.0523888668 3.40259913953
4783 1 41.2848442347 29.1108430673 3.19285896855
241 1 45.5504766981 27.3139804137 3.18428295015
240 1 43.8761661856 26.9357330596 1.35377249281
5154 1 42.6735131229 28.9371692231 1.09544588345
5155 1 42.6128203585 27.2365665127 3.41519205766
289 2 45.2044233153 28.7142508116 1.04706732426
227 1 2.58334635332 31.1001848461 1.46985460665
234 1 0.297642551335 31.7569728356 3.13950203489
190 1 0.411259765502 32.4847607868 0.790902463293
518 2 4.41461034557 32.4305537676 1.47936393903
519 1 4.23193224875 29.5127214666 3.25728804947
846 1 7.10493199993 32.073070268 1.42037467982
847 1 7.13520406576 29.8625027073 3.25204440989
890 1 5.47113674926 30.1836076862 1.22321986358
883 1 5.78385151426 31.8307408133 3.44864735606
1174 1 9.96123458316 32.0850496921 1.44819069409
1175 1 9.9733247402 29.8690195844 3.23343481564
1218 1 8.49070003869 30.0807893499 1.23937041422
1211 1 8.57171411911 31.869317621 3.44790344305
1546 1 11.3825317126 30.1082381169 1.23981579315
1539 1 11.3795501019 31.8702426663 3.4534457829
1502 1 12.8070261767 32.1151067874 1.46013839459
1503 1 12.8160392086 29.9037985275 3.23533866754
1874 1 14.2404717205 30.1495109424 1.23964488965
1867 1 14.2355545921 31.9071373048 3.45511877334
1830 1 15.6939751522 32.1390083415 1.46773789047
1831 1 15.6347277887 29.9388203837 3.23173332481
2158 1 18.651452213 32.1570307926 1.46905125987
2202 1 17.0795176776 30.1571922556 1.25434907025
2159 1 18.3986422118 29.9596245721 3.28933883908
2195 1 17.0767305524 31.9491177251 3.48573455395
2530 2 19.5851128525 29.988731654 1.18727849895
2486 2 21.3387627536 32.4009188766 2.03508268714
2815 1 25.7370059186 30.7852540473 2.44524283245
2806 1 23.1832515879 30.8506655685 1.34460704202
3178 1 24.9891008224 32.5064775842 0.170707398617
2836 1 23.9055323413 32.728003241 2.46934117007
3179 2 24.9494596988 30.0515591174 0.0971907702615
3142 1 27.2350684844 30.5385993902 0.439386195477
3470 1 30.0290172835 30.6229488815 0.865383945934
3506 1 28.8458362051 32.7199417589 0.660671544363
3507 1 28.4742359621 31.0252689331 2.80428339163
3134 2 26.8134189442 32.6361553107 1.46668822486
3462 1 30.1930285736 32.8728934357 2.65328323152
3798 1 32.86143969 30.686521708 0.847609982056
3834 1 31.4123089037 32.6623377085 0.56458206654
3835 1 31.465776346 30.8740050332 2.84619439991
3790 1 32.8466565884 32.8959476347 2.6086581868
4162 1 34.2360183673 32.6965043214 0.600311690786
4163 1 34.2760941859 30.9107807887 2.8438132405
4126 1 35.6629171158 30.7121753535 0.822915481652
4490 1 37.0408161173 32.7321417118 0.574650873206
4491 1 37.0733448137 30.9520553546 2.82109978993
4454 1 38.4618096173 30.7870101057 0.813182731217
4782 1 41.2864645296 30.8665008781 0.834681110325
4818 2 39.8475455536 32.8806117015 0.397651633675
4819 2 39.8820598855 31.0292003699 2.8129844911
235 1 44.2987622546 29.3739747878 3.10948255976
5111 1 44.2377304342 30.9417548409 0.85156669931
5147 1 42.6550132598 31.0511872934 2.87914788642
5146 1 42.6390783475 32.8279628525 0.590212709487
554 1 2.75503921645 34.1328675369 1.68690638374
5102 1 0.143488802542 34.6205902387 2.0634098257
509 1 4.43833598316 36.0402886755 1.85102623175
837 1 7.2471824356 36.1174094838 1.89292350104
882 1 5.85031574753 34.1497062603 1.66056237614
510 1 4.40982918262 33.8624930251 3.63158443618
1165 1 10.018965969 36.1021578109 1.91698801894
1210 1 8.57792458555 34.0811968088 1.67405447736
1538 1 11.3795529214 34.1021179729 1.66398886607
1493 1 12.8084615448 36.0959217439 1.93058357274
1866 1 14.2396584194 34.1139805775 1.68126502067
1494 2 12.8019181785 33.8193132 3.58942105341
1821 1 15.6263494081 36.1033092897 1.96670283933
2149 1 18.4443040786 36.1807470013 2.02858619194
2194 1 17.1114395592 34.1114386844 1.72545862246
2378 1 19.8680082525 36.4573795413 0.0463216279486
2477 1 21.4534418726 36.2845840616 2.11849246292
2522 1 19.8197312146 34.3036840285 1.8907802511
2913 2 21.3987325043 34.8334321029 0.0163997586085
2842 2 23.2959098079 34.765353963 2.82135138126
3170 1 25.709391045 34.6679646021 2.19747767257
2805 1 23.9829948144 34.7013324542 0.367535939296
3133 1 27.044876315 34.6362463334 0.227962432264
3461 1 30.0084503106 34.7102009493 0.377591914075
3498 1 28.5040609051 34.6380931489 2.33395748829
3789 1 32.8036647193 34.6763747578 0.369371042602
3826 1 31.4452326458 34.8868302712 2.37870949971
4154 1 34.2374589952 34.8909065632 2.38376910513
4118 1 35.6729181211 32.9236464351 2.60657650445
4117 1 35.6067552688 34.7120650958 0.364108216904
4482 1 37.069243088 34.917859143 2.34682156296
4446 1 38.4677510357 32.922564596 2.56017976098
4774 1 41.2634269094 33.015759231 2.57779721322
4810 1 39.7501421524 34.9274515728 2.10299182647
4445 1 38.3568798734 34.7661793905 0.251977396294
4773 1 41.2633096114 34.8000597162 0.176243258524
5110 1 43.9967960648 32.9922272536 2.58799199315
5138 1 42.6512841582 34.9958386492 2.0542678624
5101 1 44.1955364253 34.6453484076 0.220549330545
40 1 3.23988919233 3.35023085336 4.3184304768
540 1 3.07809740509 1.14717673388 6.11191049067
174 1 0.500386080841 1.22185148803 6.01732202312
402 1 1.80668055021 3.21106412227 6.1988049197
406 1 1.86538569792 1.36736315879 4.00082648609
78 1 0.439779210554 3.36462491335 4.12579958638
407 2 4.53704016439 3.04662218786 6.30214611974
368 1 4.58509933544 1.30331395273 4.18240907961
692 1 7.24159363175 3.14965756613 6.3946404513
696 1 7.25401230553 1.33617071048 4.13678682465
735 1 5.90865064198 1.11182210491 6.18673849313
734 1 5.88892765804 3.38976911104 4.37622102882
1020 1 10.0300568857 3.12965214145 6.38339881329
1024 1 10.037284246 1.32420993783 4.14350439034
1063 1 8.62381452653 1.11817116429 6.16230889315
1062 1 8.64348608591 3.35202577027 4.36925430915
1391 1 11.4035409602 1.14282294616 6.16866238007
1390 1 11.4338481093 3.34937806077 4.37011777269
1348 1 12.8190929985 3.1476380211 6.3929634535
1352 1 12.8145933784 1.33230474549 4.16647709227
1719 1 14.2151927324 1.16475237139 6.19247820715
1718 1 14.2198209114 3.36004049283 4.4000938161
1676 1 15.6243316764 3.15685759111 6.42407226417
1680 1 15.6028412427 1.34228273421 4.20354284725
2008 1 18.4776658533 1.34118506769 4.27349996238
2047 1 17.0436124808 1.15490797446 6.22887527223
2369 1 18.528750136 3.11846700031 6.52585966628
2046 1 17.0443725188 3.34759574666 4.47009432193
2333 1 21.2732411608 1.43054879439 4.20116059462
2698 1 20.0171351947 1.10127935876 6.40168521484
2697 1 19.7987479802 3.35175994057 4.49699555499
2325 1 21.3061601049 3.2324379761 6.57089793473
2374 2 22.5063482329 1.35866528372 6.09252970993
2662 1 22.5516781023 3.56093470651 4.42977405624
2701 1 24.1760254157 1.95295545169 4.23303810501
3033 1 25.8620370755 0.357228075373 4.1946542341
3030 2 25.8109946276 2.4878708472 5.97532212729
2704 1 24.448354395 0.278247485547 6.20815263887
2991 1 27.0315426723 2.58347313822 3.93701277555
2992 1 27.3284170088 0.740359898647 6.11461553996
3319 1 30.0082927667 2.54363646208 4.00270293086
3320 1 30.0205866278 0.799303215974 6.14444350092
3358 1 28.5535834061 2.8284068117 5.92834705202
3361 1 28.6178577328 0.589132800058 4.09833850206
3647 1 32.8270646726 2.54204265757 3.97215220307
3648 1 32.8521653359 0.776689341681 6.17810605805
3686 1 31.425555037 2.79334414719 5.96007423309
3689 1 31.4288035717 0.559159661009 4.16212201927
4017 1 34.2524127166 0.549212737231 4.17903057476
4014 1 34.2608538659 2.76387738456 5.95560026172
3975 1 35.6236812775 2.54810339729 3.92892035645
3976 1 35.7177015294 0.772182850262 6.17937525734
4342 1 37.0930501446 2.75858655208 5.91890368464
4345 1 37.0631350586 0.533262431896 4.13525073997
4631 1 41.3014765424 2.5640308681 3.74344897544
4303 1 38.3463935714 2.54004794635 3.81334837374
4304 1 38.5348843081 0.75164663776 6.10109038281
4632 1 41.1261265016 1.00247599154 6.16714002524
4670 2 39.8967743048 2.82110558028 5.50126565405
4673 1 39.8448044449 0.622677987756 4.04296030839
218 1 45.4299265217 0.476444411027 3.85615570955
79 2 44.9505533451 3.13926018078 6.17309103962
4959 1 43.9173128243 2.50305730297 3.92618809769
4998 1 42.4384499496 3.06953782036 5.88050237362
5001 1 42.6712011184 0.458371359441 4.09539855493
37 1 43.6625660279 1.1708200066 6.12755875452
401 1 1.88133604572 5.52792384088 5.13036797162
393 1 1.12576156224 7.15383796807 6.94081210511
363 1 4.42460023649 5.43880113843 4.66653964899
691 1 7.24758789266 5.37326034925 4.6347309909
729 1 5.82485275387 5.13202007239 6.64775030219
685 1 7.29251738538 7.11856095987 6.83858193804
357 2 4.73576485601 7.26477357446 6.78579669215
1019 1 10.0569040575 5.36643012329 4.59359798538
1057 1 8.64937359507 5.13218033252 6.61329357401
1013 1 10.0562904716 7.14531053969 6.82501403824
1385 1 11.4367682498 5.14738164335 6.60287664371
1347 1 12.8371494107 5.3797879712 4.58944841137
1713 1 14.2341181809 5.16899932489 6.62246745018
1341 1 12.8406966082 7.16340143345 6.82765055673
1675 1 15.6481750452 5.37498814605 4.65202934464
2041 1 17.0837475018 5.14545389371 6.70047047508
2003 1 18.4341079813 5.37637912327 4.7053946398
1669 1 15.680341082 7.1800791373 6.87738494995
2361 1 18.4853331491 7.1671942799 6.9041443186
2330 1 21.0544585279 5.40578043928 4.62313488308
1997 1 19.885379097 5.17175693681 6.72606127063
2327 2 22.5621690676 5.30991199518 6.28709198209
2368 1 21.3863141436 7.1937703084 6.92838754491