ITEM: TIMESTEP
16000
ITEM: NUMBER OF ATOMS
5248
ITEM: BOX BOUNDS pp pp pp
0.0 45.68
0.0 36.5618393957
0.0 36.5618393957
ITEM: ATOMS id type x y z
409 2 3.18544943648 1.55523486526 2.68317936235
39 1 1.93432545841 3.40609861419 2.22043844302
181 1 1.11227781298 0.65371170755 2.03247169982
697 1 7.24103493248 1.67178325505 0.220688169287
737 1 5.75775049763 1.36747372706 2.24487540048
695 1 7.20307624604 3.4534639203 2.49030644768
367 1 4.60635511249 3.48322631317 2.47503314334
369 2 4.81693046291 1.81712707759 0.0374649457452
1025 1 9.97101573375 1.73414027862 0.225135375299
1065 1 8.57627604888 1.46541809259 2.24554624174
1023 1 9.95985173033 3.50190734548 2.47898229535
1393 1 11.3734775078 1.51877818428 2.25255593474
1353 1 12.7565764513 1.7711184666 0.242526185036
1721 1 14.1608059362 1.54066846746 2.25655186177
1351 1 12.770652773 3.52827747162 2.49413579315
1681 1 15.5222268339 1.78352506293 0.235489541092
2049 1 16.9152611847 1.51880134893 2.19854225904
2009 1 18.2851755478 1.83521103992 0.232414821676
1679 1 15.5877815878 3.54539330039 2.50574521583
2007 1 18.4151092608 3.47734132523 2.4850578363
2377 1 19.7311193132 1.41273860966 2.2015971675
2477 2 22.0138734217 0.405205362721 2.28099345991
2337 1 21.2504025681 1.72932268235 0.251578392062
2335 2 20.9910325232 3.47051051672 2.24204927086
2336 1 23.1496867401 2.40167472057 2.02621458078
3032 1 25.9281786289 2.499057348 1.79431578633
2665 1 24.4746576494 0.381406616363 2.16517825636
2706 1 23.1150399989 0.207728042642 0.132130032757
3034 2 25.7941285819 0.341614593335 0.102635346088
3360 1 28.6856987355 2.48704351998 1.83141518858
3321 1 30.0730015471 0.51027093056 2.06020838068
2993 1 27.3205611279 0.475711890887 2.00308651178
3649 1 32.8817991503 0.54355723294 2.11148483951
3688 1 31.4381283314 2.53879518345 1.84846221831
3690 1 31.4832165117 0.323329703552 0.0775175528672
4016 1 34.2605895035 2.55217610099 1.88173936485
4018 1 34.2618479392 0.331962090757 0.0933366309596
3977 1 35.633952362 0.518561900884 2.11274824417
4344 1 36.9542065831 2.55658249342 1.81320196604
4346 1 37.043749849 0.352149585437 0.107916150938
4305 1 38.4099192138 0.57015235344 2.12991651665
4672 1 39.7943850875 2.60751150469 1.89195031775
4633 1 41.0515475119 0.575009165949 2.15206671343
4674 1 39.7905408876 0.369480391328 0.10187427835
81 1 45.2727852116 2.42555514544 1.94818596009
5000 1 42.5377902241 2.39096924122 1.82679867668
4961 1 43.9506795451 0.408233358692 2.12590923614
82 1 45.3532949125 0.327583572417 0.0981035774502
5002 1 42.4453914773 0.382099175843 0.143629070607
36 2 3.29917260504 5.53496624 2.87998421519
77 2 0.321948435713 5.4028091742 2.26523960759
35 1 0.39629185441 7.26462195562 0.92610194413
366 1 4.40749225883 5.62134719296 0.695711039643
694 1 7.17115662685 5.75087705875 0.659255135936
733 1 5.86844443725 5.5240785714 2.70165673293
736 1 5.94675381302 3.72672331527 0.445466775737
1022 1 9.94830939667 5.75481828392 0.701506738711
1061 1 8.55050630237 5.49064862483 2.70358037757
1064 1 8.55403881547 3.72652829318 0.44798177682
1389 1 11.369606469 5.51067160196 2.70881241659
1392 1 11.3562601524 3.76268453881 0.478456769966
1350 1 12.7702116652 5.78941636275 0.730207552456
1717 1 14.192301128 5.51865290231 2.72029691598
1720 1 14.1721205143 3.80237772812 0.500665166992
1678 1 15.6138106231 5.80691687132 0.754834963559
2006 1 18.3651437782 5.75595822019 0.795124345809
2045 1 17.0625001281 5.48412650279 2.79396983326
2048 1 16.9488192161 3.80267209595 0.506446704473
2767 1 22.5375853618 3.79700880825 0.24336884729
2376 1 19.7684063776 3.79250816918 0.392392676282
2373 1 19.8584222693 5.42478958107 2.82689523944
2387 1 21.2549502615 5.78660996158 0.775235787211
3029 1 22.7545128062 4.6557135633 3.13258667476
2759 1 21.2780661151 7.27646821193 3.02016755448
2722 2 23.2402499095 6.71308277621 1.92781399496
2663 1 24.5687871416 4.5218987204 1.58705082048
3028 1 25.9031571954 6.54672257613 1.50084897988
2702 1 25.9394000634 4.73392593379 3.58043696663
2695 1 24.6013723986 6.7836845109 3.60765865136
2986 1 27.3851357191 4.51359454616 1.68550558222
3318 1 30.0207430981 4.52585656704 1.61078116215
3356 2 28.6621270255 6.61543144551 1.29418127984
3023 1 27.3284384152 6.726014505 3.40866970509
3314 1 30.0389985446 6.72380013924 3.39649106155
3646 1 32.8180811558 4.54169961918 1.62723619843
3684 1 31.3954088882 6.52211862453 1.37138514316
3642 1 32.8130686917 6.74236827251 3.40195927951
4012 1 34.1897828631 6.56191618101 1.37811443489
3685 1 31.4267629736 4.73693071533 3.63371812155
3970 1 35.5968110098 6.77707565163 3.4070247519
3974 1 35.5939280003 4.58579760595 1.62870348053
4340 1 37.0048530314 6.57776466932 1.42105269683
4341 1 36.9845302627 4.80046965996 3.65293348107
4298 1 38.4082702698 6.78460322839 3.43059450836
4302 1 38.3918745788 4.58077593142 1.66620745339
4630 1 41.2784401411 4.57342140993 1.78487296058
4668 1 39.8308534194 6.56738101919 1.45505825417
4626 1 41.1798867219 6.84706643102 3.44132914979
4958 1 43.9780190023 4.39376118541 1.86997044577
4996 1 42.5997998597 6.64130609983 1.46774233749
4954 1 44.4023068832 7.05044447026 3.22451507061
4997 2 42.8936146846 5.42120380526 3.62144627005
70 1 1.56900705195 7.35833738926 3.06656938242
38 1 1.56360568466 9.52702590348 1.1651392095
404 1 3.05661878281 7.61140219388 1.02478373369
392 1 2.87475720218 9.41930378247 3.25271084839
362 1 4.42295440419 7.5205770486 3.02570423473
361 1 4.33665740505 9.68126525052 1.33367296376
689 1 7.20428378624 9.7222680794 1.2782755941
690 1 7.18292848499 7.53235827311 2.95977848317
727 1 5.76789209519 9.49331175204 3.29189137127
732 1 5.76414281317 7.70332884975 0.943781406048
1017 1 9.90643778418 9.73885231746 1.14303673262
1018 1 9.91530968002 7.46012787812 2.93067017622
1055 1 8.59026563311 9.5144256542 3.21757492892
1060 1 8.53319324803 7.73667454361 0.898712616354
1383 2 11.2136849149 9.30265140905 3.13691822111
1388 1 11.3561046562 7.78807082625 0.957966982985
1345 1 12.7581729552 9.81231929737 1.25691485989
1346 1 12.7778448549 7.50935269796 2.94031746848
1711 2 14.3571582519 9.27192596304 3.15382265029
1716 1 14.1842965664 7.78702608534 0.987191353573
2002 1 18.5045239408 7.45148400385 3.08476177885
1673 1 15.5997360371 9.75449227837 1.21872522167
1674 1 15.6568679823 7.43099580071 3.00335164722
2039 1 17.0360898181 9.45635180806 3.24535049651
2044 2 17.0398545125 7.81720728257 1.12342322886
2001 1 18.3962959729 9.74259774437 1.28309387945
2334 1 19.7512756108 7.72213827128 1.04440905897
2367 1 19.94625529 9.34294972743 3.33993510868
2372 1 22.4914535832 8.30773468783 0.571781173742
2329 1 20.940885084 9.79649424815 1.26116313955
2688 2 21.8558317925 10.9341321924 3.36293839076
2421 1 23.0662936437 10.7000788567 1.09876792301
2323 1 22.9441587023 8.91566153433 3.24152203856
2059 1 24.6290922056 8.72962580658 1.50603918898
2657 1 25.975703898 8.77815257058 3.33229120811
3022 1 25.8858588919 10.5906734758 0.992952648464
2643 1 24.4526371406 10.7679649376 3.04933004428
2979 1 27.314347374 10.7481454399 2.98322352442
2985 1 27.2227465232 8.54982922064 1.17915212903
3307 1 30.0486580308 10.7568828508 2.96401322807
3313 1 30.04230383 8.54538811001 1.1530717217
3350 1 28.6473863666 10.53043813 0.938196783087
3351 1 28.675594849 8.72901986749 3.18029247413
3635 1 32.8223729604 10.7751241617 2.95746779862
3641 1 32.7922860455 8.54497099533 1.166656832
3678 1 31.4198004459 10.5487453303 0.934182076808
3679 1 31.4195473645 8.74007889599 3.18363171106
4007 1 34.199277811 8.76795110789 3.18131652724
4006 1 34.2108303234 10.5590561062 0.937062747925
3963 1 35.5981713125 10.7795444389 2.95783481551
3969 1 35.6090865382 8.56913284875 1.18015472666
4334 1 37.0112357527 10.5795566086 0.943437363613
4335 1 36.997690772 8.78062147074 3.19715684059
4291 1 38.3915135914 10.7835785488 2.96948868124
4297 1 38.4129947747 8.58266345144 1.19934350176
4619 1 41.2015041668 10.7904305398 3.0008021499
4625 1 41.1981727371 8.64994653495 1.27166394939
4662 1 39.8040164002 10.6138515156 0.960176072196
4663 1 39.7902633649 8.80692526685 3.22844490584
33 1 45.6752035197 9.13843632632 3.15738585401
71 1 44.0460178019 8.64686932735 1.27564579667
4953 1 42.6295679049 10.6618589887 0.998882663572
4991 1 42.6947342816 8.89408936724 3.23432068532
129 1 45.2059040686 10.7097561032 1.03527868299
4946 1 44.0470527135 10.9339167855 3.09318635294
398 1 2.97175826986 11.6786705788 1.3123377268
26 2 1.84255038433 13.7863989298 1.90082305624
128 1 0.889647688165 12.4740370044 0.496517894426
399 1 1.3551744825 11.276397038 3.10219059883
354 1 4.45460598529 13.7686640178 1.6868242977
355 1 4.31047016499 11.4187639401 3.44639704884
682 1 7.17439802468 13.7215203991 1.64859043261
683 1 7.17328186923 11.4983527327 3.46623806998
726 1 5.76422886281 11.7222766671 1.51936768886
1010 1 9.96323885683 13.7480009089 1.63872088178
1011 1 10.0277184768 11.4796016428 3.40541382631
1054 1 8.58563959045 11.7395577088 1.47699152301
1047 1 8.57461396487 13.4935859307 3.63855594759
1382 2 11.1864790026 11.8221366512 1.27647260185
1375 1 11.3994760456 13.4366796827 3.61236709572
1338 1 12.7417155669 13.6782283548 1.61679149713
1339 1 12.7629195617 11.3623347732 3.37392929089
1710 2 14.2877702014 11.8275834409 1.31093094466
1703 1 14.1333854264 13.3991349107 3.59735720245
1666 1 15.5638397238 13.7536345738 1.62521217858
1667 1 15.5344111262 11.4136392863 3.39975184903
1994 1 18.3973145565 13.7811194486 1.74262471617
1995 1 16.9513397412 11.7474874537 1.43029693354
2366 1 18.3137381154 11.4636119074 3.44938011985
2031 1 16.8828278136 13.4392393553 3.59154825531
2359 2 19.5027441388 11.8108557445 1.31817786987
2679 2 20.704119076 14.1985483441 3.166758224
2687 1 21.3345776998 12.1289372293 0.0210840623523
2694 1 22.8411652626 12.9876979551 2.44347936192
2381 1 22.9144469247 14.3073670143 0.352722736177
2642 1 25.8850838211 12.7303597087 2.63332124892
3014 1 25.8342890958 14.5271956875 0.531203215958
2382 1 24.428008455 12.521406268 0.668715887772
2978 1 27.2796898407 12.5557387503 0.702677760397
3306 1 30.0303770235 12.5555864877 0.727310322243
3343 1 28.6534002807 12.7707947821 2.7477130356
3342 1 28.6356601797 14.5842756757 0.555223915596
3634 1 32.8331635003 12.5618352014 0.729575376062
3670 1 31.4436346467 14.5534409696 0.529704707627
3671 1 31.440940792 12.7787107483 2.74306709446
3999 1 34.2379598583 12.8073048379 2.73852009518
3998 1 34.2499774775 14.5832214177 0.532994966577
3962 1 35.6248801495 12.5801836967 0.713000821542
4326 1 37.035720655 14.5886961526 0.506241145773
4327 1 36.9828917976 12.7647942938 2.73716831543
4290 1 38.4094539761 12.5950189865 0.713556219376
4618 1 41.1876236722 12.6181918341 0.695122343576
4654 1 39.7842788778 14.6080733829 0.476936961539
4655 1 39.8108569881 12.759028971 2.7338704934
4282 2 38.4012211227 14.6026345604 2.53864490562
63 1 45.3424283902 12.915517271 2.77039810158
4938 1 42.5018766731 12.7974624129 2.72905841609
4990 1 43.9831092803 12.7582054708 0.749304461241
390 1 2.9789224188 15.8527568521 2.05513323466
17 1 1.27689525555 18.0397179858 1.8346506989
83 2 1.7411919834 16.2134383101 0.0293026901921
345 1 4.47213660155 17.7966570705 1.93011711022
673 1 7.22627989434 17.7583966727 1.96312339439
718 1 5.86411782663 15.7709826599 1.78435935214
1001 1 9.98358509996 17.7200669537 1.99764478322
1046 2 8.57249181207 15.6556425074 1.91787954348
1558 1 11.3734029245 17.9512448413 0.0037884111296
1374 1 11.3697031513 15.7133022935 1.81810305294
1329 1 12.7751057753 17.723237019 2.011818425
1702 1 14.1359536141 15.7044827472 1.80303967574
1657 1 15.5591594052 17.7313512092 1.98849153872
2030 1 16.9775665982 15.7633241789 1.7941717426
1985 1 18.5131118877 17.888850214 1.94881105792
2214 1 17.0104858146 17.995303666 0.022722730588
2869 1 19.7507521247 15.7684995475 1.75858949441
2313 2 21.1976249044 17.4837084911 1.54738340889
2678 1 22.3573985959 15.6290724583 2.4028002715
2866 1 24.4974243933 14.8080894748 2.52543487571
3006 1 25.887056719 16.8105484688 2.3819922171
2641 1 24.2760489486 16.3327897484 0.184324828593
2500 1 23.6547554633 17.6652133123 2.14812758983
2970 1 27.2266597647 14.7792016465 2.56661247284
3298 1 30.0461668058 14.7798645856 2.54409759525
3297 1 30.0640737774 16.5386255135 0.315498234197
3334 1 28.6167034205 16.7468789156 2.34493645151
2969 1 27.1749319722 16.567835477 0.291902155377
3626 1 32.8392896857 14.8051195226 2.54024715883
3625 1 32.840727292 16.5727113188 0.337176035475
3662 1 31.4178245596 16.7998011913 2.34655946435
3990 1 34.2684034046 16.8100822356 2.33641013126
3954 1 35.685680224 14.8326160645 2.52538343605
3953 1 35.6853941052 16.5850035904 0.343156117186
4318 1 37.1461932998 16.8085292221 2.32029728715
4610 1 41.0919722043 14.8196656242 2.49585021024
4646 1 39.6513596333 16.7999768627 2.29863819815
4609 1 41.1204610807 16.6302914742 0.292189564215
4281 2 38.4092627189 16.5738718536 0.079754748274
4982 1 42.5292160061 14.6366166627 0.465688350331
125 1 45.4965091792 14.7313679368 0.573210029128
27 1 43.8226693203 14.7438065967 2.51678620566
62 2 45.1065905438 16.5666616283 2.40950253764
4974 1 42.4706972478 16.7886842334 2.30421749327
4937 1 43.8774340957 16.6029374158 0.277693146233
573 1 2.95659146335 19.71964401 2.08805640711
244 1 1.77317145067 21.729521841 2.42041665595
245 1 0.00778022989772 20.3255224713 2.10770133011
205 1 1.4277103011 20.1252159204 0.0701567962541
861 1 7.19463093959 19.9933467543 0.163227645402
901 1 5.81957737255 19.7690170543 2.179049972
859 1 7.23602703236 21.7337791708 2.43101696817
531 1 4.39252829365 21.7320226614 2.40560343064
533 1 4.37448227634 20.042096815 0.12653257519
1189 1 10.028331043 19.974587118 0.199821207064
1229 1 8.6147374936 19.7294748682 2.19381450483
1187 1 10.0311217247 21.7209336287 2.44181140021
1557 1 11.4052093902 19.7243096884 2.22126242875
1517 1 12.7919212914 19.9535705607 0.202384353758
1885 1 14.1768822719 19.7532626244 2.22627867987
1515 1 12.8099397568 21.7534552886 2.45774964374
2213 1 16.8699594062 19.758461981 2.22172737188
1845 1 15.555076294 19.9366472912 0.183851424215
1843 1 15.56787402 21.776818413 2.47541592811
2173 1 18.3546269296 20.0188520767 0.279846998999
2172 2 18.8687683564 20.2262342532 3.03119440618
2828 1 20.6380472621 19.8886260674 1.25554732252
2499 1 20.862241049 21.8122971912 2.71727229809
2540 2 19.9977906939 21.8947738203 0.0289745185782
2351 2 21.6088187858 19.6974191541 3.65554904407
2868 1 23.1186288009 20.4946778196 1.84363961928
3196 1 25.3737852773 19.5407660201 2.452819363
2895 2 25.2488616093 20.5885801645 0.316881488185
3157 2 27.4300845779 18.690326008 1.77224895637
3485 1 30.0034840547 18.7782837315 2.11380962319
3524 1 28.6572091694 20.7901050005 1.92897720839
3854 1 31.4299549039 18.5692510263 0.123460623969
3813 1 32.8239354594 18.8082181099 2.14050945939
3852 1 31.3905966504 20.8210812366 1.93852178405
4180 1 34.239644179 20.8090223899 1.92821779348
4182 1 34.2477692042 18.5739284158 0.139604608073
4510 1 37.0258662675 18.5898608751 0.102460333607
4141 1 35.6901159199 18.7864008989 2.13128743542
4508 1 36.9917418669 20.8609728903 1.89978809577
4797 1 41.0813071542 18.7673413969 2.06196083067
4469 2 38.4056985727 19.0123891007 2.08027524905
4836 1 39.8344967644 20.8588475932 1.85769420184
4838 1 39.7682264123 18.6143844073 0.0595953062909
246 2 45.1745096716 18.6742064978 0.0674665404876
5125 1 43.9322467195 18.6865401002 2.06778864166
5164 1 42.604015945 20.773953242 1.81390141596
5166 1 42.5534574273 18.6489019802 0.109775315431
569 1 3.05972548151 23.7556437498 2.69057216208
627 1 1.75369286236 24.1342260284 0.6982894883
5122 1 0.244578206813 23.3256784133 2.76752284333
572 1 2.93148122449 22.0262506503 0.315254989693
5190 1 0.0599188526346 22.431883829 0.127429758955
198 1 1.474205666 25.5045179047 3.0311597096
530 1 4.47827320737 23.9314260298 0.672160807861
858 1 7.25177853935 23.9378700974 0.64384440608
897 1 5.85401818376 23.7126952901 2.68315260499
900 1 5.82565832805 21.9603553646 0.399530796359
1228 1 8.63394071321 21.9524064317 0.412902739079
1186 1 10.0449001495 23.9516994738 0.631519987277
1225 1 8.6580604471 23.7218665526 2.66505505801
1553 1 11.4038427763 23.7434239532 2.62374586582
1556 1 11.4296130113 21.9614369166 0.423405256384
1514 1 12.8339108855 23.9782675452 0.644384926808
1881 1 14.1997499448 23.7586378427 2.66895501291
1884 1 14.1870027274 21.9659986866 0.424423519465
2171 1 18.4425544103 21.9874373155 1.89032963429
2212 1 16.7599697485 21.9738927856 0.329084869537
1842 1 15.5436777918 24.0064415977 0.629251953265
2170 1 18.2479370978 23.9668142804 0.512463286193
2209 1 16.9394514859 23.7495520859 2.58465470049
2494 1 22.1456219969 22.4554425044 0.859899949108
2495 2 19.4339954627 23.9696962118 2.60488140819
2537 2 21.4785833932 24.7093874682 0.517545708401
2923 1 23.9109538849 24.2484080851 1.03946323118
2826 1 24.8731582165 22.1608933234 1.83758164116
3192 2 25.9124396291 25.4842675603 1.48654948832
2822 1 25.8147098133 23.788149976 3.30380934635
2860 1 23.1332363616 23.3051563848 3.28736669021
3154 2 27.3887842069 22.7138237398 1.58967590744
3478 1 30.0282520208 25.082907378 3.5333548501
3482 1 29.9920030208 22.857947099 1.70717644352
3520 1 28.519245484 24.8902740622 1.57941542
3806 1 32.8094222581 25.0309775812 3.51089210221
3810 1 32.8180430734 22.8116761778 1.72139587972
3848 1 31.4134774384 24.8365707577 1.51297855904
4176 2 34.2141759885 24.8356961886 1.49517342011
4134 1 35.6291364498 25.0397518225 3.48556662263
4138 1 35.6100677236 22.8313672549 1.69595345099
4504 1 37.0172300385 24.8421247315 1.4811570266
4462 1 38.4634268906 25.0495063481 3.44938123052
4466 1 38.4186260715 22.8501746591 1.66688174005
4790 1 41.3011614847 25.0481223817 3.41173010564
4794 1 41.2502931928 22.8215770575 1.60909032738
4832 1 39.8637711996 24.8389359434 1.43929321536
4833 1 39.862752628 23.0405638461 3.62709355762
242 1 45.3002606588 24.9996096821 1.21841127355
5160 1 42.5996550023 24.8753590747 1.35793853408
5161 2 43.8891205112 22.9813466107 1.49552997017
5118 1 44.0628179611 24.9011007402 3.34990181281
5158 1 42.6566608347 22.9541180409 3.5728761209
568 1 3.2657379281 26.0482782757 1.04540368356
563 1 3.02558133538 27.5856733494 3.29613971443
197 1 1.06213157336 26.9987754232 1.15486187771
293 2 2.77500361886 28.6466968123 1.42597347589
526 1 4.48513800867 25.6989831658 3.00519446996
525 1 4.81643122635 27.9570026351 1.17400817139
853 1 7.31439603798 27.910200385 1.08146988257
854 1 7.27974952844 25.7038286365 2.90988504426
891 1 5.95121135734 27.6903856201 3.20778135892
896 1 5.87528735265 25.91098789 0.904855123417
1181 1 10.0623470278 27.963903921 1.0863090127
1182 1 10.0425572416 25.7480758371 2.87625371019
1219 1 8.68006414888 27.7267515017 3.11765630907
1224 1 8.67612902323 25.9342560998 0.879315980449
1552 1 11.4461916813 25.9702249641 0.859767885731
1547 1 11.4486602853 27.7552455302 3.10667243205
1509 1 12.8250204519 28.0013740604 1.0796000598
1510 1 12.8299417601 25.7507819717 2.88392931001
1875 1 14.2246897593 27.7591696543 3.09498045474
1880 1 14.2122346809 26.0112061384 0.864634691384
2166 1 18.2425091675 25.8491147812 2.80336361943
1837 1 15.6055913763 28.0455135798 1.05912079655
1838 1 15.6156481703 25.748306371 2.88331808987
2165 1 18.2699403246 27.9986289098 1.05497717567
2203 1 16.923601449 27.7918084517 3.11636942361
2208 1 16.9138702061 26.0149297102 0.78750479039
2536 1 19.6242315233 26.0141395011 0.828693310503
2589 1 19.6671196633 27.7221487473 3.12716495581
2487 1 22.4591050519 27.7933878793 3.01535627447
2814 1 20.8275696381 28.1914292441 1.15641404987
2551 1 22.5107721918 26.6160651165 0.727920689005
2531 1 21.1692370543 25.7144590179 2.72561111553
2859 1 23.8880401136 25.8813141615 2.9160334022
3186 1 26.0137863843 29.0713722357 1.00984963703
3251 1 24.6124313642 27.2680858855 1.18564380382
2488 1 24.5786805047 28.9505612607 2.98801012423
3187 1 26.0677628246 27.1119242151 3.25972560384
3149 1 27.4209021832 27.0911869106 1.13231662812
3471 1 30.0777874535 29.0983976031 3.05721412853
3477 1 30.0082469225 26.8399154255 1.28344746767
3514 1 28.7316815317 28.9620673707 1.00504783409
3515 1 28.6945313055 27.1404669949 3.34222419863
3143 1 27.2999844415 29.1297911553 3.08248787763
3799 1 32.8384714503 29.0563477421 3.02510353345
3805 1 32.812098199 26.8432792252 1.25955140093
3842 1 31.431582346 28.84905688 1.00754233383
3843 1 31.4350384321 27.0575250207 3.27277870913
4171 1 34.2202926734 27.035241546 3.2589105116
4170 1 34.2390978751 28.8317708923 1.03076215245
4127 1 35.6420527712 29.0374830585 3.03500264693
4133 1 35.6297486818 26.843800059 1.2752105987
4498 1 37.0494554675 28.83519165 1.05276300974
4499 1 37.0486907058 27.0386094872 3.25768224409
4455 1 38.4787261162 29.0417213289 3.05549129983
4461 1 38.4581883315 26.8410077445 1.27025454583
4789 1 41.2703300672 26.8686375354 1.24343360878
4826 1 39.8818478969 28.8608669961 1.06674520468
4827 1 39.9069870167 27.0602839469 3.25687316573
4783 1 41.3675751928 29.0685781884 3.09658897398
241 2 45.2663087393 26.8176470641 3.19333565197
240 1 43.9863993224 26.8950205111 1.12749756563
5154 1 42.6548060402 28.8852310914 1.08498734793
5155 1 42.7520848766 27.0694286794 3.23502541797
289 2 45.1874765068 28.8673422281 0.791546443028
235 1 44.3479706913 29.2031044874 3.10764269846
227 2 1.70017694099 31.7418844751 1.79901965153
555 1 3.07474486991 31.5934554402 3.54098435914
518 2 4.76822788272 31.7972380069 1.66005426648
519 1 4.54502844098 29.6543660056 3.21131914601
846 1 7.38042860531 31.9646481162 1.5479017764
847 1 7.35003566853 29.7124894608 3.39400431712
890 1 6.14973610915 29.9465493635 1.35363708075
883 1 5.93288015703 31.6951898167 3.60574593324
1174 1 10.0427082516 32.0094134392 1.54402925637
1175 1 10.0615000039 29.7620861436 3.338309342
1218 1 8.69219036978 29.9554391269 1.31702101371
1211 1 8.67489643908 31.7711994682 3.57845434577
1539 1 11.4252701658 31.7988194149 3.55905634099
1546 1 11.4299984699 29.9994867155 1.31140039785
1502 1 12.7894643872 32.0325100595 1.53759084611
1503 1 12.8258062366 29.7792404472 3.32165278301
1874 1 14.1947530065 30.0297669271 1.29339804734
1867 1 14.1805828388 31.8166956094 3.53987116624
1830 1 15.5606422154 32.0552233098 1.52500972702
1831 1 15.5800786946 29.8075218266 3.30637795489
2158 1 18.4451123809 32.1710290583 1.49680035709
2202 1 16.9537893464 30.085112588 1.28997661068
2159 1 18.2966763804 29.807795496 3.34187702886
2195 1 16.9533423444 31.8355579274 3.50814692492
2530 2 19.4446860595 29.9556811869 1.33970249171
2486 1 21.1256741278 31.559316244 1.58228648837
2843 1 21.0124713794 29.7448737004 3.15699618926
2523 1 19.7239922722 31.8337795333 3.54644271293
2850 1 22.7860421726 32.886838182 0.597814450737
2851 1 23.002309061 29.3142045593 1.10735975639
2815 1 25.8743580729 31.085112835 2.94341849363
2806 1 23.1297590909 30.9028159797 2.91141771094
3179 1 24.6317066169 31.0419759304 0.900000086175
3142 1 27.3192939922 30.9673860488 0.762350915627
3470 1 30.0767516199 30.9045922276 0.76203014194
3507 1 28.6777663516 31.0993178651 2.84229244603
3798 1 32.8677877509 30.8523890646 0.80074727862
3834 1 31.5016700748 32.8739686515 0.543655042012
3835 1 31.4682395972 31.0843362115 2.81209835847
4163 1 34.2598090047 31.0601710055 2.80246614043
4162 1 34.2833616132 32.8638582165 0.573953221814
4126 1 35.6598886793 30.8453182025 0.804453844485
4490 1 37.0550918347 32.8683839953 0.594982650261
4491 1 37.0495195255 31.0477903432 2.82546999654
4454 1 38.4422769452 30.855343556 0.858938678843
4782 1 41.2833483996 30.872814721 0.904165710897
4819 1 39.8839910638 31.0384806585 2.8593878363
4818 1 39.8429115565 32.864788684 0.615980017646
234 1 45.6251580283 31.5552871568 3.20764957474
5111 1 44.0366434199 30.8931805435 0.870662314658
5147 1 42.7650439736 31.0778098658 2.96034253855
554 1 3.16178120204 33.566455626 1.55646419714
247 2 1.46677741438 34.9655802552 1.87410510668
546 1 3.03614242648 35.7579673414 3.6063861237
5102 1 0.178719488982 35.4718364594 3.53610361746
509 2 4.65033721322 35.5466492715 1.79841416381
837 1 7.22937131893 35.9828639152 1.98639287696
882 1 6.00231642904 33.8431457289 1.68063389335
510 1 4.51092055486 33.6798778802 3.61921111643
1165 1 10.0043442303 36.0530080877 2.00640470164
1210 1 8.64623009651 34.024277117 1.76024722769
1538 1 11.3988764717 34.0473063474 1.77509407772
1493 1 12.768233324 36.0802546253 2.01462591102
1866 1 14.1478352563 34.0627938583 1.77449530323
1722 1 14.1293618338 36.3190100994 0.00180255658387
1821 1 15.5295245904 36.0850775979 1.99614306069
2149 1 18.3514339119 35.9952353058 1.95614920431
2194 1 16.89355326 34.0673766595 1.7582111061
2050 1 16.9078636572 36.3369006906 0.00553530238151
2703 1 22.1978930446 32.9508161895 3.50032564337
2522 1 20.2637167217 33.8169483178 2.18192471651
2913 1 21.281004976 35.1387371215 0.382955913393
2798 1 23.0297645784 34.869502494 2.0310625316
2836 1 24.4392920713 32.9876753655 2.41763666938
3178 1 25.9314344247 32.9548253199 0.467018283413
3170 1 25.8693136623 35.0130771904 2.14553429185
2842 1 24.3677715365 34.7471215765 0.072374032285
3506 1 28.7103094078 32.9078835384 0.499707743163
3462 1 30.0955498948 33.0836459761 2.54452687295
3134 1 27.3251967023 33.0591191226 2.48276594119
3133 1 27.2743072263 34.9006251724 0.219767829434
3461 1 30.1076298802 34.8747262598 0.278685776478
3498 1 28.6929867464 35.061715721 2.23423852929
3790 1 32.8878731176 33.0773294164 2.57759456547
3789 1 32.8960768911 34.8786519148 0.320582276031
3826 1 31.5056124967 35.0864727187 2.31172995165
4154 1 34.2767315565 35.0821243784 2.35785569024
4118 1 35.6753096558 33.0739339177 2.60007548238
4117 1 35.6686575993 34.8850577205 0.3475652016
4482 1 37.0643029289 35.0913495095 2.37374031312
4774 1 41.2188796335 33.0503457562 2.71116602647
4446 1 38.4568076276 33.0583901027 2.62340677869
4810 1 39.7852048623 35.0879703758 2.39067136498
4445 1 38.437562009 34.888127654 0.349442366729
4773 1 41.1674468605 34.8927856832 0.340922184361
190 2 44.9008954553 32.9661965757 0.884514502164
5146 1 42.5058955954 32.9105937073 0.717167902805
5110 1 43.8978049485 33.2787895918 2.8079626617
5138 1 42.3467798206 35.1471612644 2.41914201523
5101 1 43.7906223382 34.9985828657 0.495855232477
40 1 3.13790724614 3.39675580988 4.4047896478
540 1 3.03181841338 1.03250587501 6.32921638257
174 2 0.64406686539 0.858834255094 6.25439698686
402 1 1.76643754653 3.09313473323 6.28271948564
406 1 1.6010773462 1.50337656349 4.26716399131
78 1 0.300729576187 3.64590680625 3.91745412747
407 1 4.45291733916 3.00999962266 6.48234655985
368 1 4.48093387301 1.31064679356 4.45209680638
692 1 7.20927471385 3.04232844855 6.53338184989
696 1 7.16953479988 1.21837591483 4.24370502183
735 1 5.83379324548 0.998315608438 6.33664968168
734 1 5.90968375965 3.26819301807 4.51758463621
1020 1 10.0089303509 3.05513269948 6.49836334143
1024 1 9.9895405533 1.27952829317 4.26318304091
1063 1 8.58898420033 1.03660087707 6.26813355765
1062 1 8.58816227234 3.26935582499 4.50669447545
1390 1 11.3712453466 3.30047159065 4.47759492853
1391 1 11.395799515 1.05976060716 6.26215807085
1348 2 12.7939542829 3.0810645816 6.46901673699
1352 1 12.7868213832 1.31249171633 4.26559895479
1719 1 14.2149762841 1.08949940902 6.26445739905
1718 1 14.1978313466 3.32767546703 4.48866767708
1676 1 15.6121171626 3.12438676956 6.49121109907
1680 1 15.5822848688 1.33634981525 4.25703943754
2008 1 18.2418816575 1.35884844128 4.11815615434
2047 1 17.0023497907 1.12674104663 6.25332079854
2369 1 18.4454098811 3.19032503093 6.51754073789
2046 1 17.0403012935 3.35569455491 4.5122146805
2333 2 21.5057490517 1.67867621748 5.40370007793
2698 1 19.4837438041 1.06752758416 6.04099780937
2697 1 20.0317474797 3.29743766525 4.56386103368
2325 1 21.2999495664 3.24321851257 7.00801978413
2662 1 23.0402550475 3.26031029581 5.39728876904
2701 1 24.6381886343 2.73572883156 3.78303040807
3033 1 26.0171048907 0.684117819119 3.95311580728
2704 1 24.7051224364 0.975957459421 5.84344827903
3030 1 25.8441955835 3.04394893006 5.84961637788
2991 1 27.2938649265 2.72384642195 3.84332538056
2992 1 27.233495252 0.960161707165 6.08268937249
3319 1 30.0795414693 2.71122917286 3.87145021025
3320 1 30.0911338994 0.986867091195 6.10356232976
3358 1 28.651367466 2.95188956563 5.88315610397
3361 1 28.6754493368 0.718866225058 4.07421811401
3647 1 32.8645512273 2.74903288167 3.88730919543
3648 1 32.9012888419 0.958492366214 6.13989448329
3686 1 31.4821732008 2.95860379622 5.89877921789
3689 1 31.4856891309 0.740949502087 4.10340653014
4017 1 34.3051134099 0.75435310412 4.15411132809
4014 1 34.3029096922 2.96261960998 5.92362251154
3975 1 35.6559258073 2.77099216733 3.9230297769
3976 1 35.7534407836 0.9856459495 6.19920155637
4342 1 37.1308926067 3.00331774662 5.923999525
4345 1 37.0148160052 0.742120544882 4.13640678646
4303 2 38.1872492706 2.76450829947 3.66555847972
4631 2 41.2265030167 2.76081341867 3.91130084381
4304 2 38.397636433 0.863497325106 6.09591670623
4632 1 41.0133689508 0.974031584566 6.21437322286
4670 1 39.6579257077 3.01539008352 5.87792271679
4673 1 39.7307689515 0.821784358531 4.16432466886
218 1 45.0531411412 1.08006451974 4.13414911309
79 1 45.0899263443 2.88527458271 6.00920398531
4959 1 43.6555292439 2.91383249641 3.9159271442
4998 1 42.4287287182 2.94422634117 6.05032689726
5001 1 42.4167257732 0.803879824613 4.16250560185
37 1 43.7410719527 0.988694330049 6.20003287461
401 2 0.47522018066 5.05076201719 5.63531858438
30 2 3.27914130388 5.02517054302 6.60957166011
393 1 1.41530653987 6.87800996508 7.250459695
400 1 2.94015573052 7.20023184168 5.05916157647
363 1 4.56942370042 5.31472322717 4.74617154704
691 1 7.19587040078 5.31139049399 4.73880351818
729 1 5.85727542518 5.06206260041 6.75385818728
685 1 7.21821845974 7.067849277 6.96638593121
357 1 4.3427247077 7.05006677276 7.06980491509
1019 1 9.98630299863 5.30203588804 4.7136430506
1057 1 8.61400737871 5.0610001048 6.72767108226
1013 1 10.0230853313 7.06877316011 6.94167149665
1385 1 11.3986545053 5.07484971236 6.71045066362
1056 1 8.57675518598 7.30672723015 4.9740293703
1347 1 12.7808952132 5.31553428402 4.70734463471
1713 1 14.1908538668 5.10898669204 6.71138559942
1341 1 12.7835097506 7.09664574407 6.92419048828