ITEM: TIMESTEP
28000
ITEM: NUMBER OF ATOMS
9560
ITEM: BOX BOUNDS pp pp pp
0.0 88.6430375159
0.0 28.55
0.0 44.3215187579
ITEM: ATOMS id type x y z
2 1 0.853384805408 0.875581407537 1.15157765083
491 1 3.03405453158 2.72604066046 0.746494228632
11 1 2.31168888289 0.138116785998 3.56215642455
489 1 1.82110988884 2.6886119938 2.89709304092
481 1 0.216303840108 3.1808792356 0.502239489685
13 1 3.20659204418 0.169307206988 0.847611539286
12 1 4.08362062654 1.5910345699 2.57843709108
29 1 6.77306744208 1.48874284066 3.20531165214
508 2 5.8072332938 2.88113582744 1.4065742998
30 1 5.74153592148 0.123347846013 1.4848299579
31 1 7.44767014086 1.4466647185 0.364623213053
57 1 10.1547662294 1.43012207187 1.11990131216
534 1 8.45022651052 2.86693648115 2.12761263674
56 1 8.41762060712 0.0401714026239 2.15652648997
565 1 11.1747154969 2.84604476313 2.8638472913
88 1 12.8919761025 1.41401091655 1.84041891629
597 1 13.8973133974 2.83406695715 3.57929904344
599 1 14.6231297731 2.82683509711 0.800591653954
567 1 11.8914561117 2.83535705179 0.100922848466
87 1 11.1497563551 0.00150771117177 2.87354905291
120 1 15.6231817244 1.4097423254 2.54541041371
151 1 18.3524370648 1.39469904364 3.26977496507
630 1 17.3536700705 2.81933320327 1.51456230326
153 1 19.085276318 1.38028537984 0.52896607938
185 1 21.8109733422 1.38474790403 1.23811200987
662 1 20.0875357498 2.8146473574 2.25642043069
216 1 24.5514719502 1.37694471721 1.96143432797
693 1 22.8220754939 2.80990989142 2.97955304303
695 1 23.5423261985 2.80881912935 0.220863033188
248 1 27.2978848641 1.36898487412 2.68165729982
727 1 26.2827582895 2.80117571979 0.944764817545
759 1 29.0340563622 2.78810493142 1.66517833799
280 1 30.0628170346 1.35123297186 3.38741258092
282 1 30.7711277019 1.34665082087 0.656809187456
791 1 31.7886215755 2.77882102166 2.37597675411
314 1 33.5434069885 1.35048313557 1.37057103214
345 1 36.3450083441 1.38247161066 2.07129391232
822 1 34.5537830934 2.77705929313 3.09621038291
824 1 35.2853887868 2.79007793646 0.367529430191
376 1 39.1115698273 1.35101352095 2.64042223392
855 1 38.0073813454 3.01908203357 1.089044241
378 2 39.694187214 1.86523567612 0.0230839861286
887 1 40.8069798172 3.02230107732 1.79163315169
410 2 42.8671177676 1.8614908387 0.971375189209
918 1 43.5661589909 3.02889094923 2.69341220125
408 1 41.7969762699 1.39772626824 3.46068410406
4866 1 45.570198386 1.38206914307 1.47624873939
5824 2 45.7790782702 3.09484449984 3.0519763577
5347 1 46.4714265646 3.78096097481 0.744730471163
5344 1 48.0185731467 2.95060729502 2.45254139286
5411 1 50.7149235057 2.77704132598 1.28107528706
4899 1 49.7125000345 1.50588647261 3.15337872578
4901 1 48.2972084321 1.64293207498 0.490690461593
4933 1 50.7657036983 0.158583498168 1.51909103092
4932 1 52.5617744416 1.52679865836 2.3517512028
4964 1 55.2946626594 1.43999889683 1.68356218314
5443 1 53.6289685745 2.91892255356 0.677428240768
5441 1 54.2983748065 2.8967601366 3.41590152664
4963 1 54.2494387962 0.0299081723975 3.40388644204
4997 1 58.0071680226 1.43019016547 0.956362190056
5474 1 57.0216150729 2.86022324478 2.70509862849
4996 1 57.0044155921 0.00755437793173 2.69822188861
5028 1 61.4691801756 1.42600930928 3.00133254993
5030 1 60.7143185041 1.42266536891 0.227984542646
5507 1 59.7386587598 2.84486565497 1.98693599126
5540 1 62.4332862886 2.85006405198 1.25294315865
5029 1 59.7336104494 0.00743487651989 1.97776385968
5061 1 64.1331155475 1.41858568057 2.2790410848
5572 1 65.1358233374 2.84022581131 0.521883822909
5570 1 65.8515749605 2.84289547884 3.26691164149
5093 1 66.8719799358 1.41529835834 1.53203808196
5126 1 69.5873082138 1.43733754905 0.78025414487
5603 1 68.5925918576 2.85353563118 2.5299573856
5157 1 73.0708675877 1.4629323446 2.82234668909
5636 1 71.3168944802 2.86758892819 1.80559957673
5124 1 70.3143195618 1.44439925289 3.56064964732
5158 2 71.3298637722 0.146385854281 1.81374235885
4998 1 72.3271997984 1.45595945912 0.0562422407138
5189 1 75.7633648476 1.45951839494 2.08015739407
5668 1 74.0541814583 2.90423974714 1.08020519608
5698 1 76.7713796513 2.90926635083 0.355617830541
5696 1 77.4710253397 2.89736644553 3.10319500619
5220 1 76.7680300423 0.0115207184469 0.364665573328
5218 1 77.4821202339 0.00351299487514 3.11637979519
5190 1 74.0092118844 0.000199976515684 1.08536850759
5219 1 78.4859362727 1.45957507282 1.37750061398
5718 1 80.2065739705 2.89042996552 2.38113051203
5240 1 80.2223679508 0.0213411813833 2.38875804787
5241 1 81.2558912809 1.46922551871 0.641648912458
5731 1 82.9822433445 2.91475606645 1.65747804212
5239 1 81.943742155 1.47850506372 3.408313366
5252 1 84.7623767507 1.50122523341 2.53708002213
5253 1 82.898575272 0.0370810664311 1.71528453309
5127 1 84.047076814 1.47404023267 0.0133801132503
1 1 87.7717483025 1.98394538014 2.32922804459
5736 1 85.876023376 2.90844941689 0.768352977036
5258 1 86.5283974176 0.323636559298 1.03162311245
9559 1 86.2708907819 0.0845571291344 3.64374925192
480 2 1.69890125555 4.55157274051 1.52419296619
958 1 1.24864149588 7.07291626756 1.75789562209
969 1 3.32580036309 5.7757065395 0.736371828292
967 1 2.37308365029 5.69468961718 3.50803626417
479 1 0.1646391776 4.78554224243 3.07388621701
490 1 4.03258407796 4.20052745501 2.49748344269
968 1 4.08049913961 7.15001326281 2.52146836695
507 1 6.77950194451 4.30522298567 3.18145195209
985 1 6.74932724856 7.07546487052 3.18081807406
986 1 5.73702580347 5.64472354472 1.43763726049
987 1 7.45487492978 7.07581014315 0.40297464711
509 1 7.4621916975 4.24852201445 0.361767298423
535 1 10.1713918046 4.24524011606 1.10523195083
1012 1 8.47192743683 5.67193260703 2.13345793621
1013 1 10.1916351686 7.09281544073 1.12272133041
1043 2 11.1923470364 5.67784904125 2.86084938821
566 1 12.9123387216 4.24510128034 1.83131870003
1044 1 12.9224383035 7.09690753367 1.8340584003
1075 1 13.9075730977 5.67557179661 3.57169589755
1077 1 14.6361507399 5.65218967816 0.803952011744
1045 1 11.9044688571 5.66777660667 0.100164592439
598 1 15.6303999542 4.23953995864 2.54219229206
629 1 18.3585844813 4.24221905252 3.26719532646
1076 1 15.6321259346 7.09434894363 2.54913520594
1107 1 18.3557460885 7.10001229901 3.2665627009
1108 1 17.3495770442 5.6526150489 1.51288522486
631 1 19.0917440064 4.25244732582 0.528243604482
663 1 21.8141598199 4.24013752582 1.23711985221
1109 1 19.0761789356 7.09100782057 0.507865124391
1140 1 20.0871275648 5.67159148567 2.25445373498
1141 1 21.8135026846 7.10018734686 1.2361711009
694 1 24.5518697459 4.23595394453 1.96099613868
1171 1 22.8213452738 5.67048235181 2.97845686219
1172 1 24.5505928793 7.09724236472 1.96035030925
1173 1 23.5422517919 5.66721565714 0.219194168667
726 1 27.2961450935 4.22668532587 2.68163170116
1204 1 27.2908784222 7.09100542098 2.68306208269
1205 1 26.2818207808 5.66120507382 0.944190759168
1237 1 29.025028572 5.65431773742 1.66726929283
758 1 30.0440837319 4.21855315146 3.39863861279
760 1 30.7620699606 4.21815715209 0.654989908694
1236 1 30.0320128492 7.08460787426 3.40560649628
1238 1 30.7536144068 7.08183073608 0.653030204623
1269 1 31.7717023543 5.64967019819 2.38949557198
792 1 33.5197831713 4.21737186606 1.37622958756
823 1 36.2461163498 4.2602712196 2.10873958875
1270 1 33.495400833 7.08194114568 1.37579523598
1300 1 34.5089713267 5.66324332919 3.12011506335
1301 1 36.2429038512 7.09061862172 2.10001119725
1302 1 35.2344789874 5.65878690482 0.354776595479
854 1 39.0298040629 4.3017989739 2.84518266239
1332 1 39.000457648 7.11070419499 2.8226786956
1333 1 37.9932764755 5.69294283024 1.06946448198
1334 1 39.7323351708 7.12369493763 0.0144452350598
856 1 39.7602046994 4.38098666895 0.0275750208
1365 1 40.7768544395 5.72709757559 1.79931909874
886 1 41.7160606174 4.27005589703 3.57827109498
1396 1 42.5692595995 4.37709430511 0.766430202541
1364 1 41.6892241339 7.17654393337 3.52779426086
1366 1 42.44988236 7.182036363 0.708420855754
6217 1 43.4480179265 5.70763896687 2.47455410595
5346 2 45.915719571 5.92107245571 1.77563851683
6302 1 46.1339925331 8.01290448247 1.15415160166
5825 1 44.4094194325 5.79431489056 0.0928399562706
5822 1 48.1292986207 5.85244581996 2.07901436965
5377 2 49.9080831952 4.34172743666 2.88268928381
5739 1 48.9845664155 4.31426953819 0.365310717786
5855 1 50.0101060091 7.16080064845 3.02581532739
5889 1 50.8914649409 5.71040586646 1.29847497428
5857 1 49.2532962715 7.21729770999 0.431354507239
5410 1 52.536412355 4.26829321573 2.37634606918
5442 1 55.3266404026 4.30943679039 1.68388609977
5888 1 52.6078156626 7.14918868961 2.38607945877
5920 1 55.3216406625 7.1493278792 1.67952090256
5921 1 53.5983443777 5.72597760211 0.656315654843
5919 1 54.2941119671 5.70870177406 3.41171198715
5475 1 58.0218496242 4.28529219131 0.958724512536
5952 1 57.0332947696 5.71775087341 2.70474181047
5953 1 58.0119111234 7.1541661359 0.947384190874
5506 1 61.4251579432 4.29611919917 2.97962842025
5508 1 60.7101497416 4.27800703693 0.22347824017
5984 1 61.4409236793 7.14829600293 2.98204100647
5985 1 59.7245786736 5.71651316996 1.97351293191
5986 1 60.708417087 7.14827853757 0.214734161187
6018 1 62.4291658178 5.71356065545 1.23425653076
5539 1 64.160476958 4.29544548973 2.23246742715
6017 1 64.1515661688 7.14499307534 2.24209354048
6050 1 65.1450965959 5.71184737218 0.491480769375
6048 1 65.8725444935 5.71410582826 3.26044901159
5571 1 66.8603100098 4.27885388325 1.51726408926
5604 1 69.5849008533 4.28848008944 0.785571298369
6049 1 66.864992274 7.14083642103 1.50763381616
6081 1 68.5853688109 5.70991162141 2.53317943941
6082 1 69.5801098057 7.13797968037 0.779300587923
5635 1 73.0380234441 4.2831795029 2.83357557016
6113 1 73.032697418 7.13393592618 2.83331371869
6114 1 71.3052083808 5.7134687431 1.80343139462
5602 1 70.3160851363 4.28181816379 3.54890858491
6080 1 70.3119141408 7.13517177116 3.54927422896
5476 1 72.294194285 4.28359269226 0.0511441373812
5954 1 72.2906960211 7.14831419656 0.0439725526658
6146 2 73.9019214245 5.71501796306 1.10160634672
5667 1 75.7829460676 4.35168582128 2.05838753235
6145 1 75.7788183118 7.0647045159 2.05714352705
6176 2 76.8808681963 5.72078772624 0.176359723621
6174 2 77.5150778763 5.69997693764 3.25920744365
5697 1 78.4853938907 4.31738415331 1.38089511067
6175 1 78.4571945242 7.09857617541 1.41220835879
6196 1 80.1995720556 5.72365537264 2.40187889909
5719 1 81.2316699691 4.31853783771 0.645026195758
6197 1 81.2292738935 7.16430848192 0.692141607259
5730 1 84.65468761 4.3416441792 2.68119758318
6208 1 84.6530876128 7.25714489587 2.73170482034
6209 1 82.9471451402 5.76704440659 1.68238908259
6195 1 81.912319511 7.16886796719 3.41822367718
5717 1 81.9297573875 4.31366782729 3.40916754773
5735 2 87.0639609309 4.44419192116 1.81170524578
6213 1 87.4134141397 7.12673131712 1.93384104543
6214 1 85.4917374089 5.81115554495 0.950920379944
1436 1 2.95621672887 8.58688310984 0.832942868872
1925 1 3.08358061249 11.2748548634 0.75308518484
1915 1 1.25007909773 9.98441287081 2.01690124663
1445 1 2.22187765384 8.39916199746 3.56046957799
1923 1 2.37835338939 11.3482989956 3.53591060265
1446 1 4.02880911022 9.89441780826 2.52831053408
1463 1 6.76313879399 9.94438045573 3.18307927033
1464 1 5.77377876861 8.52949112769 1.45842377083
1942 1 5.72486086011 11.3562880333 1.43630667672
1465 1 7.48560529683 9.93720494019 0.43926144047
1490 1 8.47834285171 8.50314772012 2.15753698142
1491 1 10.1983700104 9.94345427024 1.13993897174
1968 1 8.47667412916 11.3772972039 2.1561089231
1999 1 11.1970974743 11.3910747835 2.87372775624
1521 1 11.2022573312 8.52682476197 2.86922932798
1522 1 12.9117010037 9.95324399065 1.84076058289
1553 1 13.9130053144 8.53379408186 3.57441565665
1555 1 14.6305950593 8.51856592311 0.813645880898
2031 1 13.9028572652 11.3852199437 3.55952705488
2033 1 14.6263187069 11.3886248911 0.815857376415
1523 1 11.9114155032 8.51140671042 0.108251167563
2001 1 11.9067732709 11.3797065135 0.106436098015
1554 1 15.6315972291 9.9636040068 2.55156742254
1585 1 18.3564276461 9.96532233726 3.26941158493
1586 1 17.3521491618 8.52510556731 1.52685112722
2064 1 17.3490735791 11.393595765 1.53073543258
1587 1 19.0751803706 9.95882119522 0.510508256241
1618 1 20.0829360997 8.53033658598 2.25180041047
1619 1 21.8100811158 9.95975031214 1.23473612101
2096 1 20.0818831087 11.3929322508 2.25244625013
1649 1 22.819573817 8.53215478061 2.97806240581
1650 1 24.5489008603 9.95963519809 1.96068497785
2127 1 22.8175311476 11.3927285239 2.97824439
2129 1 23.536810273 11.3876604061 0.21732743672
1651 1 23.5401493747 8.5275757475 0.218006559849
1682 1 27.289362879 9.95642921005 2.68568308923
1683 1 26.2796130532 8.52441890964 0.944146867043
1715 1 29.0201174827 8.51880202379 1.66794315477
2161 1 26.2786228458 11.3872351751 0.945654350686
2193 1 29.0196186635 11.3829203877 1.66935685139
1714 1 30.0270120966 9.94999334189 3.40859974305
1716 1 30.7497870542 9.94575713519 0.651812855331
1747 1 31.7601249058 8.51421681005 2.39251096567
2225 1 31.7598516684 11.3747621381 2.39289255206
1748 1 33.4911393553 9.93785872892 1.3749986919
1778 1 34.4986803543 8.50918879595 3.1233336914
1779 1 36.2242489801 9.92571846599 2.09869782686
2256 1 34.4944875808 11.3633459813 3.12328197703
2258 1 35.22103067 11.3580337074 0.349047214274
1780 1 35.2216711448 8.50155189602 0.350174982262
1810 1 38.956425997 9.93080067158 2.82335517008
1811 1 37.9719723274 8.50938092604 1.06109349027
2289 1 37.9448826764 11.3292781938 1.05769036131
1843 1 40.7282743042 8.55924853344 1.76147092427
2321 1 40.6803432127 11.3095836601 1.77996871335
1874 1 43.4874204328 8.56398770653 2.48929714586
1844 1 42.4490088361 9.95096616818 0.666615612029
2352 1 43.2982628253 11.351708033 2.45907998213
1842 1 41.6990551781 9.90940365964 3.57925460859
6695 2 44.8849228013 10.0373509583 1.37060451465
6693 2 47.3857161346 11.8607198733 0.508911699593
6812 1 48.3299312108 11.3634231697 2.38503714724
6334 1 48.2500851444 8.65439977459 2.24290101361
6333 1 50.0622180333 10.0771204393 3.11770141804
6335 1 49.188706391 10.1052977356 0.406106992371
6367 1 50.9572964708 8.64681774673 1.37216348456
6845 1 51.0172940209 11.4556077628 1.37604370488
6366 1 52.6648435512 10.041054269 2.41668688839
6398 1 55.3162271402 10.0409956084 1.67231137318
6399 1 53.6329866185 8.58971834383 0.662431310666
6877 1 53.6028531913 11.5002406051 0.657676296781
6875 1 54.3152617797 11.4986345399 3.40347913147
6397 1 54.329386274 8.59108585877 3.41931187969
6430 1 57.0223932841 8.59351590862 2.69332299191
6431 1 58.0099730997 10.0291969586 0.940669935884
6908 1 57.0183879556 11.474220003 2.68151186866
6462 1 61.443786377 10.020694223 2.97063942104
6463 1 59.7246102081 8.58776382267 1.96220947176
6464 1 60.7118173964 10.0212711936 0.207558519664
6496 1 62.4307688925 8.58082291216 1.22515332654
6941 1 59.7270587691 11.4623651477 1.95175143443
6974 1 62.4370270029 11.4557308012 1.21724718228
6495 1 64.1542926488 10.013025897 2.23515557454
6528 1 65.144858014 8.57355305082 0.486742272551
7006 1 65.142456604 11.4472733726 0.484529666379
6526 1 65.8739711616 8.57702315694 3.25577643401
7004 1 65.875206391 11.4435869279 3.25196753637
6527 1 66.8658222667 10.0067937732 1.50358833429
6559 1 68.5874404712 8.57047279867 2.52710941125
6560 1 69.5834904209 9.99648894886 0.775464598836
7037 1 68.5886251375 11.4341423101 2.52306712525
6591 1 73.0402769816 9.9691606898 2.81050560829
6592 1 71.3077284033 8.5591800505 1.79954200528
7070 1 71.3116971349 11.4154451353 1.79457468064
6558 1 70.3127605295 9.99401548126 3.54555811901
6432 1 72.3187515334 9.97381156481 0.0502298154819
6623 1 75.75854115 9.94213310407 2.07979009934
6624 1 74.0505040769 8.51549330398 1.07433246623
6654 1 76.7739147665 8.51150954283 0.351853165291
7102 1 74.0375349765 11.3951383329 1.06556353333
7132 1 76.7555235222 11.3841730538 0.341694005459
7130 1 77.4521394686 11.3910908858 3.12303745238
6652 1 77.4505302122 8.50693018014 3.11659447388
6653 1 78.4406762738 9.97164461286 1.40574691698
6674 1 80.1730004492 8.55598923019 2.40990937972
7152 1 80.159680317 11.4031245756 2.41754232351
6675 1 81.1834941302 10.0167771162 0.68742421779
6686 1 84.7382567152 10.1004110432 2.78394151269
6687 1 82.942786611 8.66629771842 1.71855192505
7165 2 82.7774317144 11.4264919845 1.75255029548
6673 1 81.8817111863 9.98928727033 3.45443387669
1437 1 88.5552873082 8.8429186016 0.483464345607
6691 1 87.3745001418 10.0898661155 2.2408283467
6692 1 85.6674378647 8.70105508461 1.0715398022
7170 2 85.7550651995 11.4983816033 0.860521438001
1914 2 1.32250630967 12.5158132471 1.58042518928
2392 2 1.42512714987 15.6915484947 1.6197966969
2401 1 2.17193323907 14.0733520919 3.35516367244
2403 1 2.94551325672 14.15549994 0.652322664251
2393 1 0.00415604867373 14.2556139419 0.262176085886
2402 1 3.93918186036 15.5823611444 2.43531867535
1924 1 4.00400258743 12.7864321707 2.42659349656
1941 1 6.74811188517 12.7990804778 3.1544365046
2419 1 6.72784085886 15.6440037047 3.16378212818
2420 1 5.70484180956 14.211544586 1.42402624339
2421 1 7.42831758622 15.6425570999 0.429581838229
1943 1 7.45150062705 12.7993869192 0.423679673748
1969 1 10.1877208518 12.8136466614 1.13539403155
2446 1 8.45883121342 14.2346771536 2.14890856124
2447 1 10.1737167933 15.6606187835 1.14934093621
2477 1 11.1834288719 14.2483317033 2.87405710656
2000 1 12.9045036827 12.8208094763 1.84020817196
2478 1 12.8825016372 15.6876917255 1.84103243849
2509 1 13.8898315256 14.2701888228 3.56349892413
2511 1 14.6149438322 14.2537491593 0.818368149022
2479 1 11.8931040229 14.245359632 0.108300244609
2032 1 15.6251876878 12.8264659393 2.55171311783
2063 1 18.3534483634 12.8262732362 3.27057729368
2510 1 15.6142961056 15.6845272477 2.55832402698
2541 1 18.3453175828 15.6815090664 3.2771769997
2542 1 17.342211087 14.2533143427 1.53332646936
2065 1 19.0714749808 12.8214861924 0.510204504272
2097 1 21.8071006326 12.8200547737 1.23437292725
2543 1 19.0646713379 15.6802990507 0.512217675607
2574 1 20.0772569078 14.2521580278 2.25380595313
2575 1 21.8030345688 15.6768093076 1.23449057073
2128 1 24.5472360162 12.8197096911 1.96142372791
2605 1 22.8144460188 14.2503327344 2.97869568956
2606 1 24.5453276399 15.6734056377 1.95966736867
2607 1 23.5338377922 14.2455205733 0.216243741955
2160 1 27.2922895037 12.8209503706 2.69061783897
2638 1 27.2962432632 15.6729706597 2.68810500326
2639 1 26.2780411669 14.243907134 0.944475304309
2671 1 29.0220811443 14.2392613432 1.66539543436
2192 1 30.0310036097 12.8161004103 3.41126503672
2194 1 30.7519047411 12.8054915313 0.649316721088
2670 1 30.0271537204 15.6525065658 3.38776329689
2672 1 30.7572169567 15.6615165185 0.647001197576
2703 1 31.764987928 14.2318751768 2.38684868431
2226 1 33.4956832691 12.7954329043 1.37204438624
2257 1 36.2299232959 12.7775707357 2.0965629612
2704 1 33.5033215331 15.6511623552 1.36850067393
2734 1 34.5020120362 14.2188720499 3.11521728328
2735 1 36.2464432637 15.6353768163 2.09068090261
2736 1 35.2334635168 14.2180180116 0.348781695917
2288 1 38.9131279696 12.724048649 2.84004860139
2766 1 38.9075381807 15.6290930842 2.83508001429
2767 1 37.9748399601 14.1850301698 1.06221874697
2799 1 40.5282318154 14.110528102 1.81936273572
2322 1 42.3189685034 12.792538736 0.846399332555
2800 2 42.0418453632 15.4045844222 0.871314836252
2830 1 43.5275766789 14.118928533 2.4765243183
2320 1 41.6530698096 12.7910594775 3.53074468077
2865 1 43.8945447231 14.5591809215 0.0648430212422
2798 1 41.7017463529 15.5765065503 3.4670470522
7259 1 45.2428421042 12.6605507189 1.47298776193
6780 1 45.7989100538 15.2460849111 1.17703058718
6778 1 46.2051793292 13.8938571419 3.35744354076
7768 1 47.3461427784 15.9033999683 2.88459478522
7290 1 48.1458204899 14.002478119 1.80954194503
6811 1 50.0104448568 12.947886552 3.0313051948
6813 1 49.4185348403 12.7071823586 0.242499613858
7289 1 49.8080091462 15.7518426929 2.992324189
7323 1 50.7987288058 14.4187378141 1.26388596286
7291 1 48.5051521013 16.1288707879 0.46588072027
6844 1 52.5848346408 12.9835993551 2.37632352274
6876 1 55.2942782823 12.9254355816 1.65829708771
7322 2 52.6139211428 15.7486325321 2.50026137111
7355 1 53.569416622 14.3476933653 0.642154118874
7353 1 54.3208408073 14.3284318122 3.41548159597
7354 1 55.2694645978 15.7590611426 1.66312596349
6909 1 58.0063873598 12.903542505 0.932839727532
7386 1 57.0110081068 14.3374424677 2.67894967274
7387 1 57.9944889711 15.7594331115 0.928863691286
7385 1 58.7326863173 15.7602520311 3.69294705214
6940 1 61.4512692738 12.8934756187 2.96042004178
6942 1 60.7194612585 12.8969245252 0.201409129492
7418 1 61.4571839689 15.7534258606 2.95501345842
7419 1 59.7292589096 14.3301152919 1.94466524286
7420 1 60.7221310624 15.7485561677 0.194672064514
7452 1 62.4426108291 14.3187350253 1.22294875564
6973 1 64.1598484913 12.8899939489 2.22873790878
7451 1 64.1774490742 15.7584716655 2.24431100503
7484 1 65.1508215438 14.311002613 0.491283122576
7482 1 65.8859685769 14.3211902692 3.24806363241
7005 1 66.8635602857 12.8755094686 1.50250666267
7038 1 69.586733827 12.860942614 0.775929882271
7483 1 66.8624043326 15.7467878829 1.50279027449
7515 1 68.5813251379 14.3076087295 2.52614121262
7516 1 69.5793967252 15.7257766146 0.786894365794
7069 1 73.0343760002 12.837293981 2.81491601691
7547 1 73.0346112663 15.7018746544 2.81888791323
7548 1 71.3090751793 14.281047981 1.79701018376
7514 1 70.2991312463 15.7275339713 3.54182271024
7036 1 70.3116520072 12.8569529864 3.54260876805
7388 1 72.3117608612 15.6986966593 0.0492750297238
6910 1 72.311597999 12.8375223696 0.046510707873
7101 1 75.7486246662 12.8246352733 2.08998827328
7579 1 75.7518917045 15.6893115023 2.10022204102
7580 1 74.0314397771 14.2615744714 1.06887294515
7610 1 76.7475574296 14.2554332706 0.35136656026
7608 1 77.461249742 14.2530689883 3.12917313128
7131 1 78.4590505878 12.8250993746 1.38280253053
7609 1 78.4703505007 15.6801863853 1.3927631068
7630 1 80.1828712781 14.2414123721 2.42364232175
7153 1 81.1680955566 12.8429860837 0.664780230178
7631 1 81.2274836151 15.6482852451 0.695936857402
7643 1 82.9406997662 14.1619606199 1.73924560837
7164 1 84.7104394951 12.7066765498 2.76517024362
7629 1 81.9295006333 15.6365229899 3.44649409431
7151 1 81.884139946 12.800492833 3.47810868731
7642 1 84.6769487041 15.5098862053 2.7760340457
7517 1 83.9592211091 15.5781826282 0.032235240626
7169 1 87.4662265083 12.7604437497 1.91146783073
7647 1 87.5404186076 15.5659885512 2.10638197066
7648 1 85.7389990911 14.1432954672 1.03282167464
2870 1 1.43640308302 18.6015712937 1.76619397971
3359 1 3.29554728324 19.9595779575 0.842115264524
3348 1 2.32784921395 19.9233440901 3.55619612152
2881 1 3.01133807923 17.0590365563 0.69015819835
2879 1 2.23390444159 16.9756427456 3.48967672802
2871 1 0.0749080962532 16.9330665785 0.177173814876
2880 1 4.01132108664 18.4219084449 2.52405203315
2897 1 6.68774053702 18.4911275629 3.18904164094
2898 1 5.71969546146 17.0483224634 1.44044294944
3376 1 5.74283209508 19.9485864656 1.48231406997
2899 1 7.45561434145 18.5160305262 0.418505643614
2924 1 8.43434289305 17.0950360109 2.14411941975
2925 1 10.1183371676 18.5391906817 1.11407807993
3402 1 8.40028631808 19.9614399168 2.15988456253
3433 1 11.1201444286 19.9603010941 2.85621297331
2955 1 11.1450704792 17.1133012052 2.85792378685
2956 1 12.8569480841 18.5424218147 1.83954174952
2987 1 13.8820063163 17.1111502067 3.58635888593
2989 1 14.5995540287 17.1158977827 0.823141545612
3465 1 13.8649711425 19.9681577285 3.58490069551
3467 1 14.5860301379 19.9722147342 0.82664279835
2957 1 11.8488295815 17.1156269187 0.108595634551
3435 1 11.8317842664 19.9728740516 0.112744169647
2988 1 15.6022152497 18.5413519088 2.56435477356
3019 1 18.339226892 18.5346293506 3.28133519422
3020 1 17.3345824577 17.1117798046 1.53726041336
3498 1 17.3274614868 19.9661495638 1.54008969974
3021 1 19.0586193182 18.5359607703 0.514761393749
3052 1 20.0711221581 17.1063393896 2.2563726434
3053 1 21.7999736997 18.5294728083 1.23602579071
3530 1 20.0682238465 19.9580006671 2.25789125766
3083 1 22.8116553522 17.1020157962 2.97868258555
3084 1 24.5458813264 18.5239286726 1.9602781849
3561 1 22.8123748154 19.9511946854 2.9795083986
3085 1 23.5321144852 17.1007308466 0.216483342784
3563 1 23.5315524099 19.9519691052 0.218819794664
3116 1 27.2994187143 18.5144981763 2.68760183605
3117 1 26.2784204946 17.0959253618 0.942861605454
3149 1 29.0267888768 17.0900617375 1.66204423989
3595 1 26.2820167782 19.9457890118 0.946178055506
3627 1 29.0305948124 19.9382072117 1.66567377562
3148 1 30.0338187795 18.5211061082 3.38638225856
3150 1 30.7633810684 18.5113148525 0.647490821487
3181 1 31.7719857873 17.0809382752 2.38214482485
3659 1 31.7796683982 19.928672567 2.38439460418
3182 1 33.5123488173 18.5000296611 1.36956326796
3212 1 34.5107019791 17.0690493887 3.10915867639
3213 1 36.2562534388 18.4874471755 2.09211841787
3690 1 34.5198328674 19.9167798029 3.11520216463
3214 1 35.2471608853 17.0721058217 0.34809571568
3692 1 35.2554103582 19.9251402347 0.355193899966
3244 1 38.9884525618 18.4767296306 2.81647308792
3245 1 37.9945885284 17.0545130272 1.05689142042
3723 1 38.000724778 19.8930558264 1.06598477787
3246 1 39.7382417019 18.4656035609 0.0230165311002
3277 1 40.6286562436 17.0221135447 1.77789248938
3755 1 40.7276113386 19.9080384416 1.7932348422
3278 2 42.2369774884 18.4784255917 0.763769707017
3786 2 43.4595165602 20.1796101089 2.88578869169
3308 1 43.4211577382 16.6733201603 2.14293847462
3276 1 41.8228923736 18.3800050518 3.41719524437
7737 2 45.5204034367 17.306985063 2.45433569024
7735 1 44.5264707863 18.9499663036 0.902577912151
7734 1 47.9368917708 18.0402701264 2.60788446981
7651 1 46.6059808012 17.5938161805 0.503816976488
8212 2 46.5956047238 19.8762875152 3.53551418732
7767 1 50.0573631578 18.5753476487 3.07798408569
7801 1 50.781147922 17.0802227572 1.29923131063
8279 1 50.7891745145 20.0272762995 1.31897997934
7769 1 49.0421794233 18.6000871027 0.547333583316
8246 1 48.0810200553 20.3824671268 2.0150751364
7800 1 52.4957903862 18.533878555 2.38423107571
7832 1 55.2312658596 18.5900246004 1.65424006431
7833 1 53.5300748653 17.147499744 0.651615469531
8311 1 53.4729185088 20.0107472417 0.659928919096
7831 1 54.2792680502 17.1856312341 3.41127021957
8309 1 54.2130373523 20.0038378191 3.39949461337
7864 1 56.992744794 17.1851910956 2.67647156358
7865 1 57.977032456 18.5961858874 0.923068503855
8342 1 56.9736688192 20.0157778684 2.67089847915
7863 1 58.7334357402 18.6130778625 3.69230023661
7896 1 61.4493378444 18.6114290004 2.95616528436
7897 1 59.7257662555 17.17986124 1.94149365931
7898 1 60.711817474 18.5870767363 0.189711809779
7930 1 62.4425995055 17.1778179806 1.22061139664
8375 1 59.6954578887 20.0009789561 1.92858096513
8408 1 62.4520995856 19.9902300087 1.19444874491
7929 1 64.1718611993 18.5935756364 2.23476481666
7962 1 65.1347011256 17.1503248789 0.481814949191
8440 1 65.1365759766 20.0090609093 0.479319519562
7960 1 65.9037295746 17.1877410341 3.24325717981
8438 1 65.8991216161 19.9879245204 3.25213632744
7961 2 66.849284155 18.5814658893 1.37772805491
7993 1 68.5688384848 17.1654606862 2.53172428606
7994 1 69.5727143947 18.5598907617 0.786209353495
8471 1 68.5794830305 19.9704527116 2.53401298813
8025 1 73.0425604197 18.5533722746 2.82071180477
8026 1 71.3035398419 17.139905401 1.80146714729
8504 1 71.3068675076 19.9747308509 1.80609871577
7992 1 70.2966108985 18.5586630982 3.55059190407
7866 1 72.3152059092 18.5551756576 0.0546283458147
8057 1 75.7627715077 18.5514925769 2.10231653845
8058 1 74.0367754542 17.1233855936 1.07396741525
8088 1 76.7531285206 17.114559448 0.360188243069
8536 1 74.0392765461 19.9860200695 1.07871210544
8566 1 76.7653906065 19.9787870575 0.363388095915
8086 1 77.4745542398 17.1173126876 3.13345443815
8564 1 77.488404748 19.9801177056 3.13623650149
8087 1 78.4859781387 18.5347070321 1.3929998922
8108 1 80.2109990205 17.0900383302 2.41909283214
8586 1 80.2276769757 19.941901939 2.40904450005
8109 1 81.2417071675 18.4924154393 0.678501692363
8121 1 82.9854410572 17.0478734308 1.72907004199
8599 1 82.9675142671 19.9001646496 1.68278231439
8107 1 81.957817293 18.4813825271 3.44301039947
8120 1 84.7331584616 18.4941917635 2.73083238864
7995 1 84.0639277086 18.4902521264 0.0210066085882
3349 2 88.2885591774 19.2644218429 0.631612056255
8125 1 87.4324436717 18.1536082871 2.32155385074
8126 1 85.6865586121 16.9602606651 1.13515071095
8604 1 85.8632822629 19.9287950988 1.04032310481
3837 2 1.84141885818 21.3993049663 1.81413786845
3835 1 2.19561184842 22.9795575368 3.51953546962
3882 1 3.37175104352 22.9006723273 0.920625236519
9081 2 0.496841365662 24.4019098204 2.23006062831
3836 1 4.16902816169 24.3390792256 2.66883145734
3358 1 4.11156770699 21.4102255764 2.63175671867
3375 1 6.66657343348 21.3970433566 3.23485581139
3853 1 6.67698614662 24.3013020598 3.25396850966
3854 1 5.75906713816 22.8543810092 1.4983753928
3377 1 7.42056209671 21.4231747519 0.442900234379
3855 1 7.42607956483 24.3139858471 0.428453974903
3403 1 10.128504711 21.4235624974 1.15716026666
3880 1 8.39163581021 22.8505446424 2.17604782545
3881 1 10.1178410087 24.2866463088 1.14255986675
3911 1 11.1194496493 22.8410541223 2.87693119893
3434 1 12.8486096133 21.4009913863 1.84793066816
3912 1 12.8587777439 24.2653770026 1.85334966046
3943 1 13.8618716471 22.8247140828 3.58874144763
3945 1 14.5839063599 22.828292342 0.825956808129
3913 1 11.8492870035 22.846791999 0.117592256385
3466 1 15.5950552428 21.3957488314 2.56504043466
3497 1 18.338715671 21.3881829223 3.2803810827
3944 1 15.5986497454 24.2488440979 2.56413649946
3975 1 18.339835957 24.239889195 3.27842326715
3976 1 17.3257105134 22.8181453643 1.53928823549
3499 1 19.0552756269 21.3879945117 0.516041062483
3531 1 21.7991712833 21.3796619396 1.23786354895
3977 1 19.0564083356 24.2395199526 0.515696220612
4008 1 20.068800533 22.8095597877 2.25777533073
4009 1 21.8001674756 24.2302220309 1.23839963624
3562 1 24.5478887125 21.3719321058 1.96272497014
4039 1 22.814526056 22.8011864036 2.97953227835
4040 1 24.5487761678 24.222040223 1.96161668616
4041 1 23.5314994865 22.8004200211 0.221139949546
3594 1 27.3043236487 21.3647051063 2.68910046439
4072 1 27.3045813424 24.2192414997 2.68108141581