ITEM: TIMESTEP
0
ITEM: NUMBER OF ATOMS
9560
ITEM: BOX BOUNDS pp pp pp
0.0 88.6430375159
0.0 28.55
0.0 44.3215187579
ITEM: ATOMS id type x y z
2 1 0.881453779603 1.34223589083 1.81368854045
491 2 2.09871456067 2.96880031462 0.569169013906
489 1 2.34374204551 2.96295378541 3.19491364437
13 1 3.22679553653 0.975070209379 0.653283896327
12 2 4.30180666046 1.50412309124 2.54859777831
29 1 6.70986687406 1.39332316871 3.0957869353
508 1 5.77045411526 2.77142068745 1.27988769833
31 1 7.4679054972 1.38010674046 0.28793006456
57 1 10.1261859809 1.38979294018 1.02496974821
534 1 8.38745838845 2.82328964463 2.04611910433
565 1 11.113579155 2.81343882904 2.77983028287
88 1 12.843302585 1.38241929044 1.75881301465
597 1 13.8487186586 2.81322051227 3.50677681851
599 1 14.58014557 2.80170592144 0.739682832086
567 1 11.8597187326 2.80575935127 0.00496883467389
120 1 15.5571433371 1.37742724332 2.48407326405
151 1 18.2853400992 1.37765756292 3.2017169045
630 2 17.2926606439 2.81182951769 1.46617507658
153 1 19.0065787276 1.37141896682 0.424918484944
185 1 21.7450877349 1.38327182211 1.15747024127
662 1 20.0052849901 2.80503737689 2.16960045576
216 1 24.4953918081 1.38636100311 1.88003844316
693 1 22.7570309487 2.81197330876 2.8970790746
695 1 23.4827377373 2.81042446333 0.140623634667
725 1 25.5005223943 2.81947712509 3.620996434
248 1 27.2357562492 1.39594839052 2.60363614141
727 1 26.224966081 2.82182722832 0.864808950018
759 1 28.9662406217 2.83421788564 1.58926358271
280 1 29.9693444499 1.40683229097 3.33057279404
282 1 30.6982026086 1.41511882395 0.573257448311
791 1 31.6998696292 2.84724274321 2.31874534303
314 1 33.4169824622 1.42947191891 1.31232714008
345 1 36.1577082232 1.41434170376 2.04034821236
822 1 34.4410978452 2.84794030702 3.04773939816
824 1 35.1683089083 2.86519238604 0.303218340446
376 1 38.9250507645 1.41160955157 2.79373493231
855 1 37.9027754277 2.84293913956 1.06807382989
378 1 39.6190484182 1.40521191444 0.146953665435
409 1 40.6278310951 0.0180913850454 1.80812145335
887 1 40.6964932912 2.78887766144 1.84914965279
410 1 42.4210159417 1.41220532148 0.835648267442
918 1 43.5103937799 2.74460983876 2.63124443642
408 1 41.9198816125 1.19672747801 3.64414263673
440 1 44.05233419 0.111680668399 2.39189326387
5378 2 45.7749955233 0.547802368752 0.477191842445
4866 2 45.7718142562 2.01652805626 3.18972754658
5344 2 48.3182145037 3.11482473042 1.78998282404
4899 1 49.8300685455 1.38189933547 3.12540476093
5411 1 50.7698436791 2.86137315712 1.40935763296
4901 1 49.2832097874 1.10864624753 0.658224834548
4932 1 52.5380548463 1.49248839479 2.46523716089
4964 1 55.2357389533 1.4989387226 1.70925483134
5443 2 53.413386217 2.84912708996 0.566376338661
4963 1 54.314809484 0.0709317330344 3.46883244137
5441 2 54.2923895837 2.882042764 3.58589526367
4965 1 53.5337644196 0.0225381593901 0.749658719592
4997 1 57.9572434079 1.47969474806 0.978048628285
5474 1 56.9609185514 2.89773404363 2.71753564638
4996 1 56.9891244759 0.0548662933138 2.73230588554
4837 1 56.241695656 0.0221518472649 0.0185023885548
5028 1 61.433221288 1.47282547792 3.02821734168
5030 1 60.6835740725 1.478090998 0.252275537013
5507 1 59.6851756215 2.90207529797 1.98908060514
5540 1 62.41923164 2.89863486307 1.27955922535
5062 1 62.4322481681 0.0434791343404 1.29196796454
5029 1 59.7146988465 0.0408067804828 2.01280496952
5061 1 64.1640153477 1.47428410219 2.31475470293
5572 1 65.1594549019 2.89526481062 0.570090289246
5570 1 65.8910381436 2.89047075688 3.33560548349
5094 1 65.162666585 0.04573473985 0.574146465435
5092 1 65.9010447302 0.0494577882925 3.33960383366
5093 1 66.8968129585 1.48010835067 1.60255212221
5126 1 69.6226543571 1.48348328694 0.884406814117
5603 1 68.630451103 2.90168492277 2.6201058586
5125 1 68.6258713347 0.0521424466839 2.62346305656
5157 1 73.0777572959 1.48707122025 2.93472635626
5636 1 71.3591159405 2.92301207627 1.90320238292
4998 1 72.3527065872 1.49159232526 0.166774205803
5158 1 71.3501919918 0.0515911212429 1.90571060695
5124 1 70.3526914804 1.49287499928 3.6494766316
5189 1 75.7984963398 1.48447274671 2.21880012845
5668 1 74.0720098884 2.92801319219 1.19616610144
5698 1 76.7747744358 2.93133597217 0.476605871243
5190 1 74.0709023714 0.0471491335935 1.19397081119
5220 1 76.7886994177 0.0470263432683 0.481658122301
5696 1 77.5312964273 2.91485114048 3.24493378337
5218 1 77.5330627094 0.0362034334368 3.23891678777
5219 1 78.5190244794 1.48028553195 1.5090122442
5718 1 80.2547220169 2.91677099905 2.53481859374
5240 1 80.2683108735 0.0208737484221 2.53256860366
5241 1 81.217705704 1.47725090821 0.80212914656
5731 1 82.9478988114 2.91293110589 1.81027846964
5239 1 81.9999176027 1.45636870605 3.55145000101
5253 1 82.9673767651 0.0237568281015 1.82617485541
5127 1 83.8852534002 1.46690781411 0.0673300089673
5252 1 84.6907800848 1.41922123468 2.83836093031
1 1 88.5426444742 2.98145795926 3.46528963047
5257 1 87.0384625696 1.61528943617 2.17113825578
5736 1 85.5340002729 2.96096486636 1.04636891154
481 1 88.2648127901 2.93160669387 0.493608668748
3 1 87.9720430118 0.00763492365517 0.676119901679
480 1 0.979041878309 4.51677300756 1.81425499505
958 1 1.2702918974 7.19601800468 2.24711110927
969 1 2.70890812171 5.46574462779 0.359517749682
967 2 2.56295075923 5.57111370606 3.07966747757
968 1 3.87810713008 7.18142411763 2.05516001052
490 1 4.00104991896 4.17030008743 2.07058236659
507 1 6.66105268349 4.28409335456 3.04310710113
985 1 6.65170009795 7.06797313535 3.04433714382
986 1 5.72700803514 5.67572870878 1.29739785365
509 1 7.42400233714 4.22837020142 0.27260003149
987 1 7.44749709691 7.0843982553 0.279830536672
535 1 10.1324114265 4.23024156352 1.02149475565
1012 1 8.40791285421 5.66115324665 2.03004421067
1013 1 10.1266640904 7.08926872447 1.0205888952
1043 1 11.1209818372 5.65961552509 2.77544559377
566 1 12.8544557658 4.23287993397 1.75904883815
1044 1 12.8509378087 7.08632617054 1.75900033549
1075 1 13.8540343037 5.65894018366 3.50289432164
1077 1 14.5848811614 5.65506446207 0.739538058988
1045 1 11.8596494395 5.65652163127 0.00404554723309
598 1 15.5645910843 4.23825129157 2.48850322851
629 1 18.2887555805 4.23703648879 3.20278668284
1076 1 15.5842788442 7.09691169996 2.49021000167
1107 1 18.2876412575 7.09873678541 3.19045028909
1108 1 17.2931381405 5.65717488264 1.45502262949
631 1 19.0138954551 4.22686487603 0.422422994001
663 1 21.7415475269 4.23178876063 1.15647151326
1109 1 19.0146147517 7.08283389415 0.428317743617
1140 1 20.0056877625 5.65770499171 2.17005866741
1141 1 21.7454309456 7.08882203288 1.15277642063
694 1 24.4874274343 4.24502080305 1.8814100937
1171 1 22.7468084169 5.67025472216 2.89839447718
1172 1 24.4855927156 7.09829879919 1.87952161059
1173 1 23.4792152616 5.66463140878 0.138414380293
1203 1 25.4967090276 5.67566179094 3.62075988273
726 1 27.2320244902 4.25393941171 2.60473009514
1204 1 27.2329615758 7.10533170243 2.60206115735
1205 1 26.222331605 5.6762715671 0.862963503594
1237 1 28.9683030441 5.68593947527 1.58592844091
758 1 29.9731082126 4.26478589812 3.33085749187
760 1 30.7041026239 4.26797049549 0.571360946295
1236 1 29.9782164423 7.1128192195 3.32578206941
1238 1 30.7105229302 7.11246727015 0.564968481424
1269 1 31.7130144864 5.69612988694 2.31135695124
792 1 33.4438546933 4.27881279518 1.30243539626
823 1 36.18575703 4.27740992867 2.04298065771
1270 1 33.4643446943 7.11735209221 1.28803213573
1300 1 34.4578737283 5.70125436064 3.03947064518
1301 1 36.2020857849 7.13111180024 2.02743309949
1302 1 35.2125836611 5.68586846804 0.27628928734
854 1 38.9530114383 4.26972614231 2.77466151242
1332 1 38.9646016432 7.12116982906 2.79525915194
1333 1 37.9198337942 5.7073293264 1.04022306858
856 1 39.594569796 4.2854162385 0.0729010576155
1334 1 39.655590568 7.11140160342 0.00963176341482
1396 1 42.4523739988 4.22490733046 0.808445939375
1365 1 40.7069743343 5.68713386506 1.79484555553
1364 1 41.9603014493 7.13600090643 3.24295956704
1366 1 42.3126715304 7.2043310837 0.761441366395
6217 1 43.6160638545 5.32704451728 2.65931934576
886 1 41.7164506264 4.2020525195 3.48372696809
6302 2 44.2413043678 7.28593017727 1.87677893631
5346 2 44.8617139293 4.09682260675 0.94997712933
5824 2 46.1880787289 5.42604430875 3.69041426238
5739 1 48.015289456 5.62749542173 2.37146245884
5377 1 49.7724864375 4.22910715262 3.34454764845
5855 1 49.68522818 7.15731370146 3.15584052442
5889 1 50.713693588 5.62585876678 1.46647943342
5857 1 48.9402732904 6.93384515709 0.507456356096
5410 1 52.4699181238 4.2312260081 2.48733166244
5442 1 55.2060812709 4.25326839356 1.68962180222
5888 1 52.4542263859 7.11787333916 2.42529455404
5920 1 55.200428291 7.11956272138 1.69754602416
5921 1 53.4936533501 5.61576396703 0.7250912868
5919 1 54.2065126763 5.69264483281 3.44000081554
5475 1 57.9232805639 4.31563635926 0.934458001714
5952 1 56.9342131602 5.71007025206 2.70380163873
5953 1 57.9323976041 7.14301578419 0.964932338522
5506 1 61.4255044613 4.31772930315 3.0229787326
5508 1 60.6606075478 4.31823039874 0.236767685084
5984 1 61.4293869563 7.1504474772 3.02573698407
5985 1 59.6766901991 5.7313476582 1.98648767705
5986 1 60.6763322443 7.15144822044 0.247650540546
6018 1 62.4188417377 5.73063344155 1.27817041229
5539 1 64.1669337037 4.31434190259 2.31425154723
6017 1 64.1669703849 7.14809626616 2.31419546883
6050 1 65.1592699963 5.73207161565 0.568731367281
6048 1 65.8922817077 5.73691426512 3.33878331366
5571 1 66.8917764252 4.31629273804 1.59708409705
5604 1 69.6266339537 4.33066793109 0.884631863708
6049 1 66.8953524098 7.14764462736 1.60399461876
6081 1 68.6260689103 5.73812833105 2.62600920509
6082 1 69.6274730901 7.14767866166 0.883678134259
5635 1 73.0664379699 4.31909450708 2.96226706121
6113 1 73.0589523891 7.17849356435 2.96264749202
6114 1 71.363882011 5.74050196996 1.91068472768
5476 1 72.3671346503 4.35065687214 0.162877753809
5954 1 72.3627994487 7.14393542698 0.163731518589
5602 1 70.3482881195 4.32605655151 3.65104075187
6080 1 70.3464049538 7.14524357485 3.66060427323
5667 1 75.8145568097 4.33083000007 2.2346412617
6145 1 75.8094136379 7.19828044346 2.23522504295
6146 2 74.1030210901 5.75539927467 1.32880253145
6176 1 76.7696135977 5.76794657154 0.480195835721
6174 1 77.5307312299 5.78050363513 3.24898782613
5697 1 78.5155275917 4.35560579617 1.50768054934
6175 1 78.5176940965 7.20356418504 1.49931168351
6196 1 80.2601148119 5.80084836824 2.52706498337
5719 1 81.2255296146 4.36321401637 0.793814275094
6197 1 81.2531818993 7.23142061297 0.771709753886
5730 1 84.6281127684 4.42544511391 2.81575766773
6208 1 84.7924541928 7.20194513802 2.8249494382
6209 1 82.9628051213 5.82703944641 1.79328744766
6195 1 82.0076206812 7.2618955026 3.5328171467
5717 1 81.9909544581 4.37159711727 3.54080044568
5605 1 83.906241255 4.38323502776 0.0557586444181
6083 1 84.0149288255 7.22637718009 0.0453860356769
959 1 88.5969981105 5.91434536446 0.199589938079
5735 1 87.2888620841 4.43041099787 2.05976629746
6213 1 87.5803884809 6.87294415983 2.1874605822
6214 1 85.681778094 5.80422887628 1.06460701662
1436 2 2.18262566312 9.27250150163 1.26045602883
1925 1 2.75009255613 11.5063718032 0.54684483113
1923 1 1.90908924471 11.2090665843 3.36009952308
1437 1 0.0401273117352 8.26849123624 0.107047838956
1446 1 4.00411807507 9.95070909981 2.33474139871
1463 1 6.60549358751 9.94753047022 3.07025517643
1464 1 5.76965129346 8.49513400286 1.31559964847
1942 1 5.58180081868 11.3450538862 1.29636164934
1465 1 7.37071262872 9.94646164853 0.287398399791
1490 1 8.38026473313 8.52137000832 2.04647807421
1491 1 10.103990386 9.94181237932 1.03000177585
1968 1 8.34217233555 11.3601476131 2.05123972696
1999 1 11.0824916896 11.3708219206 2.77367300615
1521 1 11.1084598189 8.5148014039 2.77314334553
1522 1 12.8350983893 9.94274249195 1.75570207006
1553 1 13.8536607686 8.51874415215 3.50062653065
1555 1 14.575978035 8.51723803903 0.738311107182
2031 1 13.8433548881 11.360771797 3.49557323328
2033 1 14.5665129168 11.3664169793 0.737788101447
2001 1 11.8291514423 11.3663592909 0.0086894031913
1523 1 11.8482513828 8.5141132813 0.00664422411135
1554 1 15.5873352294 9.94231834977 2.4826537165
1585 2 18.3289049559 9.94297320373 3.05657783617
1586 1 17.286139012 8.50508358306 1.43509022957
2064 1 17.2856456845 11.381291741 1.43465051004
1587 1 19.0216972818 9.9444212512 0.42528005391
1618 1 20.0315331889 8.50460170754 2.15909088233
1619 1 21.7517491778 9.9455723504 1.14943800577
2096 1 20.0373174619 11.3813874075 2.16009947351
1649 1 22.7472847939 8.52325609466 2.89600229526
1650 1 24.4893312499 9.95039980375 1.87818762697
2127 1 22.7513011392 11.369448282 2.8972506308
2129 1 23.4864635015 11.3770729451 0.134506292189
1651 1 23.4826157082 8.52064237923 0.134981509504
1681 1 25.4985083531 8.52630314951 3.61911301152
2159 1 25.5013667566 11.3773290685 3.62072158732
1682 1 27.2354504406 9.95535732088 2.60106859304
1683 1 26.2238821233 8.52795236931 0.860324542017
1715 1 28.9713386052 8.53360265646 1.58203252194
2161 1 26.2263325838 11.3805663522 0.860393505132
2193 1 28.9719445835 11.3834800951 1.58225105206
1714 1 29.9806269259 9.95888655348 3.32295906136
1716 1 30.7102598853 9.960986139 0.562733865182
1747 1 31.7197761899 8.53830925125 2.30347488146
2225 1 31.7172477974 11.3863659163 2.30225114908
1748 1 33.4607160817 9.96579515911 1.28346622708
1778 1 34.4642256993 8.54825681533 3.03065559786
1779 1 36.2043022539 9.97623713084 2.01093562352
2256 1 34.4582475451 11.3913545893 3.02500263786
2258 1 35.2021533733 11.3956894903 0.263341245823
1780 1 35.2113937902 8.54584708303 0.271566000324
1810 1 38.9211109365 10.0134726461 2.78064640521
1811 1 37.954742939 8.56361914779 1.02043203024
2289 1 37.9504232548 11.4147342456 0.990408136443
1843 1 40.5517077952 8.55207137086 1.77592743324
2321 1 40.6936152154 11.5166053705 1.68713641704
1844 2 42.1796918353 9.86211473234 0.887138538031
2352 1 43.3143933782 11.6692261582 2.23060102964
1842 1 41.6176083664 10.0379106169 3.40340235692
1874 1 43.7971153619 9.28110596546 2.72387698776
5856 2 46.8470229285 8.24940176679 0.271821915509
6695 1 45.7646151743 10.4394385474 1.20123302518
6812 1 47.7664798029 11.6123859384 2.13214061572
6215 1 45.2136033964 11.1520298761 3.4923792385
6334 1 47.9629831343 8.62542876979 2.18148772265
6333 1 49.7438065179 10.1045631511 3.17625957261
6335 2 49.2988154585 10.3755218978 0.785607797026
6367 1 50.7007566876 8.53474366452 1.43030166136
6845 1 50.8803419826 11.6368416706 1.54870739282
6366 1 52.4923754457 10.0181978278 2.50419723612
6398 1 55.2229817859 10.0270372418 1.75703102795
6399 1 53.4551153964 8.60610662985 0.778701020845
6877 1 53.4796403179 11.4466886086 0.762897712894
6875 1 54.2389381456 11.4536673234 3.49495115334
6397 1 54.2203683994 8.5683463555 3.45526384664
6430 1 56.9525190428 8.56904775067 2.7315673302
6431 1 57.9692329423 10.0259229847 1.02099396108
6908 1 56.9759967949 11.4435614132 2.75724505514
6271 1 56.2129375758 8.62714765642 0.0302470494749
6749 1 56.2262507348 11.4468311009 0.0059859063518
6462 1 61.444685324 9.99459487266 3.03746911138
6463 1 59.6928218718 8.57198385624 2.00690354262
6464 1 60.7130882927 10.0173268959 0.284440915702
6496 1 62.4326336919 8.57267639733 1.2883632237
6941 1 59.7235400624 11.4327854403 2.0297623305
6974 1 62.451714843 11.4327970356 1.30446041968
6495 1 64.1743251714 9.99778443733 2.3185243339
6528 1 65.1649097966 8.57526495129 0.572478473335
7006 1 65.1741332378 11.4360929695 0.579915166325
6526 1 65.903106469 8.57020743505 3.34606688708
7004 1 65.9019533704 11.4303843528 3.34504225079
6527 1 66.8965675765 10.002954424 1.60112367593
6559 1 68.6228791018 8.57246895577 2.62898150575
6560 1 69.6195296755 10.0078257895 0.881539323849
7037 1 68.6179940092 11.4368019688 2.62720917077
6591 1 73.0643932047 10.0140828887 2.9380662514
6592 1 71.3522620539 8.57075447954 1.90150390751
7070 1 71.3384604687 11.4414724456 1.90856833805
6432 1 72.3449518509 10.0060542258 0.165496830637
6558 1 70.3435687906 10.0061944344 3.65209009787
6623 1 75.789219626 10.0258097068 2.22066004578
6624 1 74.0614958576 8.5776526144 1.19710391205
6654 1 76.7704698113 8.59235034976 0.469898202129
7102 1 74.060604007 11.4481179679 1.19786415986
7132 1 76.7878560573 11.4502503886 0.478275094781
6652 1 77.5297895724 8.62683832849 3.24466163634
7130 1 77.5382761815 11.462414541 3.24276624475
6653 1 78.5268521418 10.0390521048 1.49228783331
6674 1 80.2748112591 8.6492501604 2.51243842709
7152 1 80.2974244312 11.4630486653 2.50286939924
6675 1 81.2999835398 10.0382961934 0.756239522025
6686 1 84.7798630246 10.0744038982 2.80787467244
6687 1 83.0666569213 8.63956791995 1.78222014021
7165 1 83.0780430251 11.4624418063 1.74422419492
6673 1 82.054536926 10.0677331775 3.52320726104
6691 1 88.4585729143 9.26147993417 2.60573441919
1915 2 87.826328366 10.2593151426 0.765156565357
6692 1 85.9764109447 8.62462877602 1.1471244516
7170 1 85.7954058671 11.4463005455 1.00293484714
1914 1 1.10427673218 12.9436567821 1.87779018175
2392 2 1.37536127658 15.3948268324 1.60696827616
2401 1 1.88855516799 14.3185484415 3.64050708075
2403 1 2.78014328379 14.1032529607 0.361916794727
2402 1 3.78119632138 15.5743938884 2.20893385987
1924 1 3.7343073386 12.7389531913 2.35795261595
1941 1 6.56109709664 12.7774914587 3.0506213072
2419 1 6.51912391435 15.6307306938 3.04729305145
2420 1 5.53303674912 14.1639080602 1.29854172103
1943 1 7.34184806723 12.751522557 0.301430050829
2421 1 7.30770765189 15.6104719443 0.281810041816
1969 1 10.0726200444 12.7889202249 1.0274656318
2446 1 8.30116480987 14.2091675422 2.04079372084
2447 1 10.0577151118 15.6263778797 1.01782642321
2477 1 11.0610701471 14.2181244896 2.77018838961
2000 1 12.8196152677 12.791231454 1.75641934965
2478 1 12.8042687167 15.6406950291 1.75176939368
2509 1 13.8225213417 14.2165298788 3.4922955948
2511 1 14.5545784981 14.2155799038 0.738522511565
2479 1 11.8127443184 14.2096424403 0.00658606218513
2032 1 15.5737991537 12.7793473466 2.48718290386
2063 1 18.2952609738 12.7770184892 3.19302197898
2510 1 15.5545212315 15.6451975743 2.47593905277
2541 1 18.294228097 15.6505555596 3.19312866599
2542 1 17.2913857246 14.218465416 1.45644146642
2065 1 19.0217913087 12.7984088745 0.429176525307
2097 1 21.7543198708 12.8003844375 1.15327160677
2543 1 19.0195429029 15.6547843248 0.433015506576
2574 1 20.021210374 14.2198401332 2.17590333442
2575 1 21.7552486067 15.6552443411 1.15690050001
2128 1 24.4911034187 12.8021991776 1.88057804661
2605 1 22.7554995611 14.2216897171 2.90124797286
2606 1 24.492970635 15.6547013078 1.88206468475
2607 1 23.4878623213 14.2314682346 0.13657562537
2637 1 25.5023055595 14.2282543696 3.6243647509
2160 1 27.2368741572 12.8064781725 2.60409879315
2638 1 27.236455375 15.6565216741 2.60680534739
2639 1 26.2272619158 14.2317150333 0.862126856707
2671 1 28.9707807987 14.2330024216 1.58442132162
2192 1 29.9796021225 12.8084264671 3.32624234958
2194 1 30.7080654114 12.8103722788 0.561742639464
2670 1 29.9764587756 15.6576574868 3.3308341902
2672 1 30.7032360861 15.6591506832 0.562838848799
2703 1 31.7118101249 14.2345593714 2.30401419
2226 1 33.4543144421 12.814931464 1.28094475556
2257 1 36.1919810658 12.8262939457 1.99823700221
2704 1 33.4437182698 15.664178107 1.28251123503
2734 1 34.4474034227 14.2405347228 3.02446361296
2735 1 36.1816311175 15.6751252521 2.00463697235
2736 1 35.1900653773 14.2493216823 0.25829533453
2288 1 38.917192159 12.8218269385 2.73903081837
2766 1 38.8717694941 15.6998251403 2.73261994654
2767 1 37.932546988 14.2607337574 0.973817813782
2799 1 40.5738039527 14.2915836536 1.69265260513
2322 1 42.4592009896 13.3033948538 0.669191817031
2800 1 42.264378482 15.8007846133 0.61277422522
2830 1 43.2708187857 14.5875992331 2.57975739635
2798 1 41.3495457066 15.7329440347 3.45028875954
2320 1 41.6847206333 12.9242428907 3.45913240064
7259 1 45.4218715492 13.006308078 1.94577814288
6780 1 45.7687722785 15.149132131 2.57214971845
7258 1 46.8633947214 15.1290143618 0.335715327433
2865 1 44.4526483503 14.7148561943 0.32414293672
6693 1 46.6927901341 12.7316872873 0.0495864775729
7290 1 47.9783915225 14.2353940565 2.28376978735
6781 2 44.3668525331 12.294105004 0.0106283777202
6811 1 49.7285633139 12.9397654245 3.26385078542
6813 1 49.0061335463 12.9604890247 0.414173378147
7289 1 49.6644894873 15.7585905019 3.19788008517
7323 1 50.7523835276 14.3215907693 1.45512996751
7291 1 49.1489278995 15.7591713609 0.453219439161
6844 1 52.5510533745 12.9374420779 2.51988895201
6876 1 55.2384835837 12.8794723761 1.74769445316
7322 2 52.5227167993 15.5835660925 2.49727866985
7354 1 55.2893838672 15.6981570228 1.75592662065
7355 1 53.5039762738 14.3247901345 0.71678669638
7353 1 54.2890055771 14.3036120715 3.51261503839
6909 1 57.9955854616 12.8570504752 1.01753064381
7386 1 57.0163085933 14.2872085743 2.75971230904
7387 1 58.0565470487 15.7107583986 1.0299335167
7227 1 56.2725741323 14.2743138782 0.0121387917662
6940 1 61.4632741731 12.8514764222 3.04672672716
6942 1 60.7275078107 12.8556830115 0.286298321737
7418 2 61.4728598657 15.5695059936 3.05357556172
7419 1 59.7349860896 14.2694197425 2.01793945337
7420 1 60.743949037 15.7061691677 0.29312515495
7452 1 62.4633915132 14.2832363599 1.29214353298
6973 1 64.1812684653 12.8616298726 2.31998804377
7451 1 64.154156325 15.7476602767 2.31243658357
7484 1 65.1716557763 14.3152826061 0.587205947699
7482 1 65.8901887938 14.3072167771 3.33968463465
7005 1 66.893117605 12.8709826 1.60394039751
7038 1 69.6096756886 12.8754922787 0.881489790763
7483 1 66.8866591915 15.7492698998 1.60369770786
7515 1 68.610545061 14.3064755343 2.6260711318
7516 1 69.5933484063 15.7448578286 0.879200462049
7069 1 73.0605521599 12.8762205266 2.94002974069
7547 1 73.0635568761 15.7293797552 2.94035943246
7548 1 71.3297793678 14.3060770962 1.91017363303
6910 1 72.3339988779 12.8766391761 0.169389210315
7388 1 72.3343918527 15.730361143 0.169978584399
7514 1 70.3377712538 15.7308135265 3.65669764814
7036 1 70.3365158192 12.8703316954 3.6547628792
7101 1 75.7970036271 12.8766640093 2.22514664315
7579 1 75.8033492419 15.7216355767 2.22588095169
7580 1 74.0636351431 14.3025082552 1.19852802671
7610 1 76.796445366 14.2948810211 0.481479525258
7608 1 77.5476235554 14.2982747565 3.24420307565
7131 1 78.5452926652 12.8761796366 1.49725608047
7609 1 78.5470321388 15.7113927677 1.49721980471
7630 1 80.3131311877 14.2994339641 2.50385687691
7631 1 81.3043180877 15.717180794 0.743532754583
7153 1 81.3019199688 12.868398148 0.745696335441
7643 1 83.0609049853 14.2816027483 1.74613166105
7164 1 84.8349931019 12.8794394213 2.78088661356
7629 1 82.0806629388 15.7229013153 3.52052801206
7151 1 82.0622863488 12.8768067192 3.51130333876
7642 1 84.7280118142 15.7268854605 2.76313025748
7169 2 87.3890011324 12.9293882534 2.23810219657
7647 2 87.0868488988 15.9644085653 1.88708139342
7648 1 85.7028720143 14.3009359005 1.00743754682
2393 1 88.4089689865 14.2588060488 0.184764737285
2870 1 1.25209389099 18.7693620684 2.21331114049
2879 1 2.00094505986 16.8149278663 3.38614030292
2881 1 2.55947393453 17.0622268923 0.429962415943
3359 1 2.8593395648 19.7792420676 0.456225962953
2880 1 3.81484950072 18.3460361814 2.23081653446
2897 1 6.55651668964 18.4090604589 3.03913303797
2898 1 5.51866990516 16.9894306091 1.25534293014
3376 1 5.58520685052 19.882831403 1.34482568778
2899 1 7.31858543123 18.4563030146 0.284801582107
2924 1 8.30437451927 17.0337952812 2.03030405247
2925 1 10.0542380974 18.4754446689 1.01657955795
3402 1 8.31669473883 19.8857411399 2.04424192769
3433 1 11.0441458825 19.9048123962 2.77402431178
2955 1 11.0463961436 17.0601999885 2.76849608996
2956 1 12.7946807637 18.4902665612 1.74975305205
2987 1 13.8061403282 17.0697985763 3.49069636351
2989 1 14.5425553417 17.0702909283 0.732059110278
3465 1 13.7973949571 19.9203904315 3.49140921728
3467 1 14.5364946548 19.9249926216 0.72856012555
2957 1 11.8017373371 17.0583883993 0.00224484938369
3435 1 11.804634783 19.9122885063 0.000195386797191
2988 1 15.5434381843 18.501770059 2.47157367085
3019 1 18.2914864785 18.508995348 3.19146250203
3020 1 17.2840615558 17.0792959047 1.45263968377
3498 1 17.2790559186 19.9346904614 1.45022639601
3021 1 19.016767074 18.5115007485 0.431345639301
3052 1 20.025186574 17.083082402 2.17421485262
3053 1 21.7577753064 18.5142622055 1.15524044677
3530 1 20.0239707373 19.9407052735 2.17184836667
3083 1 22.7632601925 17.0823574718 2.89862930131
3084 1 24.4970599882 18.5123219047 1.88087145899
3561 1 22.7675040348 19.9422378175 2.8961978064
3085 1 23.489205948 17.0862911087 0.138043765928
3563 1 23.4918104448 19.9446447223 0.137620989498
3593 1 25.5075591428 19.9388610973 3.62293284447
3115 1 25.5042183871 17.0815982507 3.62428710015
3116 1 27.236358126 18.5081019117 2.60725296831
3117 1 26.2275923433 17.0837356777 0.863327825037
3149 1 28.9676577633 17.0822922385 1.58634163946
3595 1 26.230091204 19.9412373539 0.8638742984
3627 1 28.9646880337 19.9373303625 1.58807899956
3148 1 29.9712703046 18.5054973222 3.33244575919
3150 1 30.695792105 18.5114614249 0.566475047686
3181 1 31.7044491872 17.0839509653 2.30523637102
3659 1 31.694165644 19.9386919854 2.30891952495
3182 1 33.4313699333 18.5183663731 1.28675781896
3212 1 34.4349912684 17.0896223475 3.02825602639
3213 1 36.1554507383 18.5328062317 2.0101935471
3690 1 34.4196254504 19.9491439269 3.03023690134
3214 1 35.1723258757 17.1001682774 0.264419588322
3692 1 35.1576291962 19.9598034725 0.270685487295
3244 1 38.897535476 18.5993800125 2.71738300051
3245 1 37.900041856 17.1313185938 0.980882956579
3723 1 37.8529871699 19.9607675946 0.998583530882
3277 1 40.5048545109 17.177176296 1.65111878096
3755 1 40.6806812582 20.1033782844 1.61575024564
3278 1 42.3188324865 18.5649119219 0.59623370657
3276 1 41.4052141055 18.6102222476 3.43822811865
3786 1 43.3261570905 19.8621110021 2.31311185223
3308 2 42.8189381395 17.2560379485 2.45021076241
7737 2 45.6912763704 16.9001329807 1.10742089787
7735 1 45.9954746685 19.0422840578 1.78341710465
7768 1 47.7722506898 16.9909949945 2.32029792849
7769 1 48.7113546383 19.2116055742 1.04513571085
7767 1 49.4324441636 18.6754722994 3.20200538564
7801 1 50.7390147809 17.2600935399 1.61099214664
8279 1 50.9701300026 19.9665931042 1.47301976251
7800 2 52.73173848 18.6804535231 2.45771272434
7832 1 55.3098447615 18.5183822917 1.74841673624
7833 1 53.5350655305 17.0671656981 0.771149771427
8311 1 53.632918495 19.9855897184 0.71667396334
7831 1 54.2819014201 17.1107936582 3.47367579989
8309 1 54.3753594162 19.9839114587 3.50221605564
7864 1 57.0532908791 17.1221990643 2.75340742877
7865 1 58.0840343509 18.5216444884 1.02000090796
8342 1 57.071310864 19.9436073138 2.75374607051
7705 1 56.311657771 17.0982169401 0.0226824833979
8183 1 56.3405303412 19.9398632239 0.0132322850394
7896 2 61.5151897359 18.7029416543 3.18798902747
7897 1 59.8287161772 17.1453778696 2.03871183265
7898 2 60.7131987866 18.5531924598 0.155524948758
7930 1 62.4182170368 17.1687032761 1.34426152587
8375 1 59.7836469397 19.96232826 2.02009451709
8408 1 62.4530561652 19.9684764301 1.30286381692
7929 1 64.1570642436 18.5652148678 2.3274791783
7962 1 65.1720834629 17.177490804 0.592378129352
8440 1 65.1783972092 19.9561784715 0.582369765233
7960 1 65.8724089656 17.140828564 3.35887266605
8438 1 65.8777042606 20.0086674192 3.36196706948
7961 2 66.9232581029 18.5754791743 1.73772203866
7993 1 68.6278948377 17.1449795876 2.63925438423
7994 1 69.5904853911 18.576267221 0.885253134877
8471 1 68.6286802726 20.015271623 2.63664822003
8025 1 73.0691454673 18.580191709 2.93662470135
8026 1 71.3314667666 17.1580400256 1.91039660928
8504 1 71.333726541 20.0010746434 1.90530215412
7866 1 72.3391860272 18.5741928367 0.165465724357
7992 1 70.3405010441 18.5839095466 3.65689341455
8057 1 75.8072497992 18.5711843156 2.22159605625
8058 1 74.0698006189 17.1485316728 1.19662655817
8088 1 76.8004004532 17.1386662463 0.480368979099
8536 1 74.0719446994 19.9998790017 1.19178012659
8566 1 76.8026650296 19.9913328288 0.477730495959
8086 1 77.5495449123 17.1401959489 3.24175112241
8564 1 77.5504780754 19.9916766196 3.23952155239
8087 1 78.5467875964 18.5587629737 1.49999480154
8108 1 80.2995458205 17.1235377053 2.50310945955
8586 1 80.3040688394 19.9761810606 2.51425271282
8109 1 81.2806218811 18.5430131375 0.756841147548
8121 1 83.0269330524 17.1307926252 1.75716860683
8599 1 82.9839331991 19.9606628495 1.81373071553
8107 1 82.0371707665 18.5078683158 3.52318488342
8120 2 84.6907627337 18.5626192727 2.82521189889
3349 1 88.5542545372 19.8052589423 0.404754151782
2871 1 88.4541308431 17.1460121926 0.376209691407
8125 1 87.3173993496 18.5488237303 2.20112820353
8126 1 85.5920955596 17.2833183957 0.964690101282
8604 1 85.8043344459 20.1170881499 1.07444915058
3348 1 1.4655904717 21.3234111535 1.54715311289
3835 1 2.22784284699 22.8509870409 3.39273244378
3837 1 2.99927227898 22.719527868 0.601215699155
3826 1 0.909209595835 23.7901652571 1.54842963656
3358 1 3.80205976172 21.1779893954 2.44627671781
3375 1 6.64026795766 21.3499474035 3.0673823165
3836 1 3.97913079455 24.1789877123 2.40467234366
3853 1 6.66555599552 24.1796251909 3.12059507936
3854 1 5.65356270566 22.7751711003 1.37345252615
3377 1 7.37270302492 21.3518284503 0.310843068796
3855 1 7.44818386934 24.164525965 0.298108414448
3403 1 10.0753351162 21.3299700806 1.02289584962
3880 1 8.3797450794 22.7645580061 2.06263889409
3881 1 10.1017139032 24.2081619546 1.01868218405
3911 1 11.0579406988 22.7669747268 2.77670870139
3434 1 12.7945608021 21.3443345407 1.75021069027
3912 1 12.8059690795 24.2063798986 1.75170918679
3943 1 13.7980480844 22.7744254597 3.49328794326
3945 1 14.5379224409 22.7825748409 0.727166528735
3466 1 15.5388677818 21.355023051 2.47067718495
3497 1 18.2879464276 21.3633415698 3.19012656763
3944 1 15.5403341636 24.2102167157 2.4727440851
3975 1 18.2858811232 24.2166096958 3.19134928726
3976 1 17.2756547715 22.7902620363 1.44797496884
3499 1 19.0122966293 21.3681030532 0.428096969621
3531 1 21.7571656985 21.3716516307 1.15337575984
3977 1 19.0070155585 24.2258957108 0.423734654137
4008 1 20.0204050018 22.7961986714 2.16955948028
4009 1 21.7536992521 24.2268747312 1.15287485241