ITEM: TIMESTEP
22000
ITEM: NUMBER OF ATOMS
9560
ITEM: BOX BOUNDS pp pp pp
0.0 88.6430375159
0.0 28.55
0.0 44.3215187579
ITEM: ATOMS id type x y z
2 1 1.41890075582 1.36430853405 1.6527146554
491 1 3.19925808926 2.78117648471 0.765526788954
481 1 0.325753966013 2.80511133991 0.0177631827932
1 1 0.103633316028 2.64335041247 3.02261419738
11 1 2.4851835413 0.17134275355 3.46085961655
489 1 2.41466471006 2.97270118309 3.5065867068
13 1 3.18762009337 0.0714359594266 0.736411467203
12 1 4.18499660536 1.49520441098 2.51330924549
29 1 6.71083873409 1.42607372149 3.22439296513
508 2 5.84543190848 2.9935177259 1.47551245298
31 1 7.51501572172 1.41603326658 0.509908634537
57 1 10.1652141495 1.39486876862 1.19797663868
534 1 8.47737265248 2.83161237122 2.22312213069
565 1 11.1698941293 2.82460777188 2.93425766186
88 1 12.8720050342 1.38844325927 1.91131414604
597 1 13.8577529724 2.81492026709 3.65639924245
599 1 14.5947807362 2.82258192408 0.878667419741
567 1 11.879072867 2.82864311277 0.184513600217
120 1 15.5857897324 1.39539434253 2.62436393228
151 1 18.3034947727 1.38953183648 3.3481880763
630 1 17.3160738778 2.81630927503 1.59683444931
153 1 19.0530142867 1.37712730428 0.602096681652
185 1 21.7669708011 1.38748368405 1.30512465608
662 1 20.0381117628 2.8149965876 2.33155619763
216 1 24.5012771288 1.38267946566 2.0262702548
693 1 22.7669303693 2.81270099338 3.04972112361
695 1 23.5006423126 2.81211003318 0.285030437352
248 1 27.2330629 1.38200550509 2.74344864894
727 1 26.229276646 2.8126730461 1.00510080216
759 1 28.9612486998 2.81101491932 1.72102355299
280 1 29.9672249664 1.37618448882 3.45263044465
282 1 30.6839867617 1.38166965405 0.696877181897
791 1 31.687985569 2.80693488894 2.42690566092
314 1 33.4143133685 1.38178495763 1.40292030469
345 1 36.1546771596 1.37906188163 2.10319910571
822 1 34.4166453529 2.8051195254 3.12800893316
824 1 35.1571620543 2.79917941967 0.368235783104
376 1 38.9205578542 1.42490972816 2.83056181017
855 1 37.9363217219 2.75612709911 1.06553059774
378 1 39.7303966689 1.30941952871 0.0933235085904
887 1 40.6602449178 2.87506447649 1.76123850806
410 1 42.3923690553 1.37230163551 0.97897061628
918 1 43.5267882903 2.87581071871 2.50757820998
408 1 41.6683510347 1.50462422123 3.47708519642
4866 1 45.2164785261 1.0869947636 1.66432398315
5824 2 45.8932602129 2.90401646736 3.11575339359
5344 2 48.7211629233 1.62477156202 1.98972389237
4899 1 49.8049650981 0.576695466753 3.59442114306
5411 1 50.6809357067 2.76591750438 1.36534371573
4933 1 50.511201446 28.5504158278 1.23156151533
4932 1 52.4075986064 1.37500453399 2.39209217182
4964 1 55.198712814 1.44576281975 1.65280257198
5443 1 53.4346558349 2.83946228061 0.637657225265
5441 1 54.1967264355 2.87773340977 3.37639507811
4965 1 53.4839884664 0.112001833933 0.522515595305
4963 1 54.1561988112 28.5500769439 3.39722841875
4997 1 57.9586344206 1.44869718583 0.910669444947
5474 1 56.949261006 2.86686074863 2.65686320649
4996 1 56.9417790968 0.0321297626884 2.65383513156
4995 1 58.6773202783 1.44748903799 3.65328759203
5028 1 61.422709324 1.44993214227 2.92546888274
5030 1 60.697519731 1.44574211976 0.173102832374
5507 1 59.6889952936 2.86238863232 1.92941277327
5540 1 62.4277808644 2.86589044536 1.18782914879
5029 1 59.6909041765 0.02915365419 1.92123635391
5062 1 62.4271077549 0.02239904093 1.18739758647
5061 1 64.1604032282 1.44092969435 2.19761727196
5572 1 65.1663198851 2.86909916783 0.451227939265
5570 1 65.89424605 2.8670913955 3.2085024317
5094 1 65.166512047 0.0175275856769 0.448449257221
5092 1 65.897010087 0.0156162697056 3.20650198567
5093 1 66.9016849504 1.44321708994 1.46357305447
5126 1 69.6432085574 1.44664411324 0.73708157148
5603 1 68.6354739849 2.87276112932 2.47804915974
5125 1 68.6346801594 0.0142884945513 2.47541942103
5157 1 73.1109868462 1.45528700734 2.75663625587
5636 1 71.3875211696 2.88768514079 1.75179176456
5124 1 70.3691193186 1.44439858857 3.48677823766
5158 1 71.374643962 0.0149586253223 1.74683029317
4998 1 72.3783771311 1.44869910771 0.00886818214414
5189 1 75.8328310406 1.46109211881 2.03745754771
5668 1 74.1057670761 2.8942824842 1.02163940078
5698 1 76.831790589 2.90575109818 0.307675865206
5696 1 77.5531438084 2.89676622153 3.0466937536
5220 1 76.84862272 0.018775697105 0.301785376462
5190 1 74.1110237782 0.0138429627355 1.02087849388
5219 1 78.5784649394 1.45673582357 1.31311133562
5718 1 80.3103664804 2.88872237601 2.32396692949
5218 1 77.5735376308 0.00847233628804 3.04434777256
5240 1 80.331527352 28.5550048933 2.30911982107
5241 1 81.3255633008 1.4598130456 0.572314118191
5731 1 83.0172708503 2.88508043269 1.57075166691
5239 1 82.059190747 1.43350522724 3.32001057055
5252 1 84.7347033099 1.40114780534 2.60182257218
5253 1 83.0677096708 28.5557480633 1.55381416659
5736 2 85.5335752551 2.99424033857 1.07429694912
5258 1 87.3283267048 1.17836203173 1.41810143828
5734 1 86.3727438124 2.88989185049 3.59045210869
9559 1 86.4663801365 0.101801631066 3.65110304708
480 1 1.47367724405 4.17852882499 1.57200863443
958 1 1.25151259137 7.08342461035 1.94257153661
969 1 3.07381727646 5.76389045208 0.856565005744
967 1 2.39161949634 5.61670487542 3.49881722657
479 1 0.180763921798 5.15096170978 3.13607590292
959 1 0.0692609390359 5.67004241417 0.118288033397
490 1 4.120759935 4.25179643383 2.50373096246
968 1 4.04304278153 7.12077276364 2.5940297336
507 1 6.81532597791 4.25506213254 3.26001336135
985 1 6.7993023131 7.10757896181 3.25209207537
986 1 5.79318526382 5.7206700171 1.53789483815
987 1 7.48740822568 7.14093599815 0.50204585612
509 1 7.54669860942 4.31925921619 0.492966539969
535 1 10.1849057775 4.26206290429 1.20663861237
1012 1 8.51368342734 5.70895299442 2.23566728321
1013 1 10.1959596194 7.13944140509 1.21571399742
1043 1 11.188180997 5.69493604677 2.9477545148
566 1 12.8908756776 4.24629117931 1.91854669
1044 1 12.9046813289 7.11593182204 1.92596584853
1075 1 13.870080522 5.67534283694 3.65606800738
1077 1 14.6112852906 5.65968631392 0.883181226873
1045 2 11.8957214938 5.69729831774 0.19147543307
598 1 15.5884499014 4.23500893029 2.62281907064
629 1 18.3015202164 4.24052733991 3.34952311473
1076 1 15.5917053009 7.09696911518 2.62998199092
1107 1 18.2957965817 7.09428478528 3.34773983846
1108 1 17.3065582763 5.64823183308 1.58994133992
631 1 19.051172059 4.25166823198 0.598241179966
663 1 21.7655349997 4.23987636511 1.30564174721
1109 1 19.0301701574 7.07721445433 0.570071783699
1140 1 20.0328899343 5.66864316435 2.32860588269
1141 1 21.7627992247 7.09361805859 1.30393497197
694 1 24.4976902479 4.24114241651 2.02829350304
1171 1 22.7628016443 5.66966097335 3.04995495061
1172 1 24.4959402077 7.09635287194 2.02767789751
1173 1 23.4971503649 5.66631094823 0.284202060813
726 1 27.232990557 4.2415031904 2.74604858022
1204 1 27.235227331 7.09905156762 2.7484442535
1205 1 26.2291730855 5.66873822823 1.00612208353
1237 1 28.9645092224 5.67193108715 1.72541501697
758 1 29.9666693171 4.24125822434 3.45951739042
760 1 30.6874619911 4.23905045601 0.69341145608
1236 1 29.9802769127 7.10788321467 3.47051787859
1238 1 30.6928096076 7.09016922554 0.68937959469
1269 1 31.695106126 5.66863540699 2.42843386015
792 1 33.4209353674 4.23079008939 1.39441848236
823 1 36.165646504 4.2150976331 2.09008046125
1270 1 33.4289066849 7.08227379059 1.39042361917
1300 1 34.4164328415 5.65871818409 3.12486796053
1301 1 36.1487935591 7.07436778075 2.09680846152
1302 1 35.1701766379 5.63457544597 0.36041781555
854 1 38.8629156722 4.21233051682 2.8076128378
1332 1 38.8580829069 7.06891685549 2.8288858022
1333 1 37.8988439897 5.63952795853 1.06947829206
1365 1 40.5563181642 5.57430765966 1.73237313979
856 1 39.603469386 4.18145861637 0.0143025080396
1334 1 39.5865572006 7.06294885045 0.00388594488483
886 1 41.7086760818 4.26809578505 3.48901600939
1396 1 42.4248951709 4.29301416929 0.752018867523
1364 2 41.4087411041 7.0443688974 3.22836223574
1366 1 42.1402074106 7.04257896436 0.72246042906
6217 1 43.452099458 5.73812139493 2.53064892509
5346 2 45.0197679846 4.67134325147 0.949553797797
6302 1 45.208775225 7.1190748549 1.44114739493
5822 2 47.6090907409 6.22907812951 2.20986063711
5377 2 49.9758695201 4.41253467955 2.90626418969
5739 1 48.9396046855 4.66505064627 0.447506641377
5855 1 49.8107929141 7.17002094711 2.94676331387
5889 1 50.9119908988 5.77725022727 1.23320537809
5857 1 48.9924092491 7.27829209729 0.326890984026
5410 1 52.4681139211 4.25969479838 2.36848698822
5442 1 55.2104016537 4.28754416872 1.62925547921
5888 1 52.5280424974 7.20473762808 2.33538515094
5920 1 55.2379893771 7.14105832601 1.62370884267
5921 1 53.4763381483 5.71375720893 0.609123120838
5919 1 54.2068031902 5.71741717869 3.37160226414
5475 1 57.9632581045 4.28975498187 0.908067874337
5952 1 56.9604932047 5.71287358928 2.6451868868
5953 1 57.9727059741 7.1482252039 0.900059980242
5951 1 58.694960713 7.15084401966 3.65459465104
5473 1 58.6916025378 4.29552768334 3.65278791485
5506 1 61.4213398419 4.28925369207 2.93194521763
5508 1 60.6986824776 4.2930723598 0.173425730313
5984 1 61.4282119946 7.15318621687 2.92520178587
5985 1 59.6952585044 5.7181026405 1.91842666583
5986 1 60.7030762689 7.15091400875 0.169556043714
6018 1 62.4301067852 5.72177845644 1.18420074379
5539 1 64.1608078821 4.29410892316 2.19680387761
6017 1 64.1611248296 7.15371535308 2.19390120276
6050 1 65.1643395841 5.72391863725 0.450711981433
6048 1 65.8911942731 5.72459770678 3.20792189164
5571 1 66.8982613969 4.29692992352 1.46419093469
5604 1 69.6409443664 4.30115715578 0.734254581575
6049 1 66.8942686005 7.15391340866 1.46272735263
6081 1 68.6290056275 5.72614462099 2.47499131594
6082 1 69.6369100145 7.15127384733 0.72924463842
5635 1 73.1208008335 4.32404754679 2.75263951659
6113 1 73.1111416417 7.12722714273 2.75065238324
6114 1 71.3846977547 5.72540461096 1.74013153879
5602 1 70.3728483044 4.30721108344 3.483952065
6080 1 70.3675998117 7.14487704927 3.48016098805
5667 1 75.8063147806 4.33090571838 2.04342841
6145 1 75.791402825 7.12641030083 2.04724357801
6146 2 74.058294488 5.72841573267 0.884122958004
6176 1 76.811359771 5.74277148872 0.30374208112
6174 1 77.5352844474 5.73243162526 3.06788026587
5697 1 78.5614450909 4.33431592358 1.31614539536
6175 1 78.5306829931 7.13750070101 1.35398042683
6196 1 80.3065187085 5.75238919561 2.3441613661
6197 1 81.2988960675 7.18822156483 0.618632519584
5719 1 81.297863607 4.3349262198 0.57875013761
5730 1 84.6742562356 4.36178098848 2.66617785166
6208 1 84.8164332466 7.22063182354 2.60342747561
6209 1 83.0053902273 5.79250883809 1.62413938216
6195 1 82.0502034241 7.21639359733 3.36507014099
5717 1 82.0505052803 4.32441923014 3.34395030166
5735 1 87.4146778981 4.10675008039 1.61798058345
6213 2 87.4258761009 6.91616512882 1.86731912935
6214 1 85.7092161473 5.7094646228 0.887894132303
6212 1 86.4298109502 5.70802761637 3.67951941379
1436 1 2.95130641706 8.5439921473 0.939061271214
1925 1 2.96594010584 11.312096269 0.874011440229
1915 1 1.28782760948 9.86046098245 2.08340515317
1446 1 3.94879414749 9.90262179098 2.64139884867
1463 1 6.74146472406 9.9920336369 3.25402952255
1464 1 5.74249483761 8.56078572899 1.56742910563
1942 1 5.64093925336 11.3818538512 1.54286088796
1465 1 7.43679660781 9.98524838343 0.504902178432
1490 1 8.47888519565 8.56279652686 2.23511117702
1491 1 10.1821285893 9.97730585175 1.21072751621
1968 1 8.43106220137 11.4143855765 2.22919057597
1999 1 11.166962209 11.4110044143 2.95297619602
1521 1 11.1902411464 8.55490801031 2.95390114902
1522 1 12.8931765783 9.97154255825 1.9185209694
1553 1 13.8774676136 8.54685528417 3.66349868206
1555 1 14.6099040255 8.52426062197 0.887406390902
2031 1 13.8649934584 11.3964507635 3.64521450532
2033 1 14.6074465686 11.398140743 0.892473562345
1523 1 11.9103528418 8.53887249452 0.181364964971
2001 1 11.893500242 11.3965585652 0.179396536546
1554 1 15.5942257125 9.96772741042 2.63245043695
1585 1 18.3019848245 9.95766001384 3.34984170291
1586 1 17.3133127547 8.52135555966 1.60223427147
2064 1 17.315533592 11.392771857 1.60765135446
1587 1 19.0389515364 9.95279535203 0.581995220763
1618 1 20.0281542695 8.52010102256 2.32339227152
1619 1 21.7628627453 9.95059538756 1.30492753305
2096 1 20.0349792831 11.3840690918 2.3275170284
1649 1 22.7613532647 8.52462323691 3.0489457816
1650 1 24.4972072837 9.95126318154 2.02827773182
2127 1 22.765370437 11.3807107101 3.05005563448
2129 1 23.497374072 11.3795633967 0.285961541759
1651 1 23.4950878738 8.52213236804 0.284096762032
1682 1 27.2375493333 9.94828076994 2.74930668263
1683 1 26.2291162032 8.52249436534 1.00602658408
1715 1 28.9696648267 8.52245602652 1.72524458033
2161 1 26.2327497571 11.3774522376 1.01038946938
2193 1 28.9724157568 11.3679767342 1.73086450031
1714 1 29.9927635684 9.9408940536 3.46899226463
1716 1 30.6954862905 9.94096745292 0.690002145095
1747 1 31.6903051703 8.50246357974 2.40971685408
2225 1 31.6893466545 11.3760179075 2.41920901179
1748 1 33.4261699934 9.93813243452 1.39710068667
1778 1 34.4316053441 8.49520739634 3.1209828091
1779 1 36.1451066155 9.93328612497 2.1123018406
2256 1 34.426120149 11.3715399661 3.13808433399
2258 1 35.1543568655 11.3722972345 0.382641365487
1780 1 35.1580646391 8.50693361545 0.367425889572
1810 1 38.8397907868 9.91270434977 2.86384357882
1811 1 37.8812005031 8.49877803338 1.08459464883
2289 1 37.874063391 11.3803671987 1.11256443089
1843 1 40.5121989605 8.55453054876 1.77209344495
1812 1 39.5706768203 9.97427379675 0.0618988386402
2321 1 40.5737907378 11.3533667053 1.87957193257
1874 1 43.3019229964 8.35363047532 2.27353526263
1844 1 42.2031392255 10.0091673675 0.721552899584
2352 1 43.2289969296 11.2869176763 2.49401498464
1842 1 41.5463375894 9.83488885369 3.59627242618
5856 2 46.8344444664 8.6147722363 0.380168955654
6695 2 45.3085635878 11.1302165591 1.08309986925
6334 1 48.0299712816 8.7821752669 2.28656193433
6812 2 48.4901746145 11.5468567513 2.07812750114
6333 1 49.917106777 10.1028567816 3.06264814911
6335 1 48.9827236976 9.97317831871 0.261854198257
6367 1 50.7592984424 8.61814866189 1.290984272
6845 1 50.8909463033 11.4270312812 1.27343941855
6366 1 52.5443172005 10.0153691756 2.34138543898
6398 1 55.2668007004 10.0231940846 1.61668774958
6399 1 53.543735459 8.58776237506 0.593599636808
6877 1 53.556407607 11.4545285049 0.59926820708
6875 1 54.2725922802 11.4597962348 3.36257691778
6397 1 54.2705059275 8.59871304406 3.35709951073
6430 1 56.9758335409 8.58367217454 2.63710160513
6431 1 57.9829368813 10.0194782033 0.894776564817
6908 1 56.9830652003 11.4648660149 2.63176478332
6429 1 58.7056317387 10.024935331 3.64792561925
6462 1 61.4370742423 10.0216598627 2.9169898933
6463 1 59.7039667198 8.58541103843 1.91042910197
6464 1 60.7124642691 10.0178482514 0.165619612022
6496 1 62.4340588355 8.58402435971 1.1788952641
6941 1 59.7155099766 11.4570924338 1.9039933009
6974 1 62.4476103756 11.4596667126 1.1720411788
6495 1 64.1621874747 10.016881813 2.18988949598
6528 1 65.1627438541 8.58412176551 0.447476385166
7006 1 65.1529092109 11.4569685581 0.445678244263
6526 1 65.8898581936 8.58572376169 3.20534236198
7004 1 65.8858947153 11.4496387034 3.20176077838
6527 1 66.8891092846 10.0166619894 1.45725294692
6559 1 68.6268045593 8.5821089919 2.47013243956
6560 1 69.6324713636 10.0104337229 0.721431165309
7037 1 68.6179327909 11.4446370555 2.46237865842
6591 1 73.0905960422 9.99356890095 2.74872126136
6592 1 71.375677289 8.56549277328 1.74183940254
7070 1 71.3584824091 11.4360877213 1.72996119
6558 1 70.3546905222 10.0080895974 3.47668213353
6623 1 75.8003090142 9.98636507366 2.03620875528
6624 1 74.0848691938 8.55694931436 1.01472014704
6654 1 76.8043400161 8.55654150346 0.319143286353
7102 1 74.0844578681 11.4282088875 1.00246024756
7132 1 76.8098586895 11.4053606613 0.2827222955
7130 1 77.5329124473 11.4242666954 3.05535304015
6652 1 77.5204915854 8.56277151003 3.06335512107
6653 1 78.5218995182 10.00330365 1.34428433744
6674 1 80.2920012759 8.59899907691 2.3543014994
7152 1 80.2840986893 11.4023847406 2.33625438717
6675 1 81.3099845797 9.99300732661 0.597786400678
6686 1 84.9075135838 10.1043853454 2.63143211319
6687 1 83.0799308545 8.61030851831 1.6235013178
7165 1 83.0522243936 11.3992168282 1.59410492176
6673 1 82.0713777995 10.0280691367 3.35611472029
1437 1 88.6387213585 8.5304454204 0.356503430421
6691 2 87.633427493 10.0953561528 2.20292445985
6692 1 85.834605913 8.69668780465 0.898673413351
7170 2 85.5191305832 11.4364315888 0.583512118762
6690 1 86.534170545 8.62645937831 3.64792496755
1914 2 1.22637308963 12.5064441846 1.90254823627
2392 2 1.20234602825 15.715395356 1.87566164401
2401 1 2.04163709267 14.110283667 3.47512129083
2403 1 2.77992136727 14.1464748465 0.719140928513
2393 1 0.143382220837 14.1214817978 0.030424355896
2402 1 3.81652186823 15.5649077012 2.41796176142
1924 1 3.82962639168 12.7835794358 2.53574926883
1941 1 6.65220266761 12.8389302808 3.23471932885
2419 1 6.6532550257 15.6182718891 3.17915884904
2420 1 5.59880527388 14.1905518202 1.48077279553
2421 1 7.36029508529 15.6169460791 0.467457437475
1943 1 7.38281849316 12.7971845118 0.478206597925
1969 1 10.1560735349 12.8208953077 1.20038525379
2446 1 8.40325871786 14.2272915563 2.19722720933
2447 1 10.1383511828 15.6523252122 1.20414617802
2477 1 11.1457851105 14.2531360129 2.9389871861
2000 1 12.8787745425 12.8300103019 1.91507180503
2478 1 12.8525021094 15.6889740369 1.90938436184
2509 1 13.8507987319 14.2765647849 3.63904910114
2511 1 14.5934976808 14.2584624366 0.89226838365
2479 1 11.871634555 14.2493005678 0.176931196978
2032 1 15.5912012795 12.8298411586 2.63093911305
2063 1 18.3073907264 12.8203653819 3.34940454765
2510 1 15.5814832218 15.6847053206 2.63281167121
2541 1 18.3074822215 15.6758812812 3.35280874085
2542 1 17.3131239995 14.2525007326 1.60899371235
2065 1 19.0423806385 12.8182061111 0.584126602231
2097 1 21.76837651 12.8111012234 1.30739074264
2543 1 19.0417891431 15.6754210515 0.585467328559
2574 1 20.039117724 14.2438354213 2.32921744083
2575 1 21.7712418298 15.6670850547 1.30804694993
2128 1 24.5031702565 12.8079954271 2.03259147251
2605 1 22.7711137747 14.237619986 3.05236696268
2606 1 24.5076182873 15.6623282914 2.03493059809
2607 1 23.5019603494 14.2362479148 0.287742430463
2160 1 27.2459886039 12.8018665159 2.76031400262
2638 1 27.2545969345 15.6641093616 2.76735009315
2639 1 26.2389186776 14.2328850696 1.01689928434
2671 1 28.9720372408 14.2227526371 1.73620747068
2192 1 29.9869372535 12.7820973532 3.48229027134
2194 1 30.6936644748 12.7957948847 0.700617478743
2670 1 29.9687237218 15.639048495 3.45914195454
2672 1 30.6938067898 15.6544610906 0.708869813781
2703 1 31.6970705534 14.2197907511 2.44711031134
2226 1 33.4218531566 12.7943125443 1.41217620967
2257 1 36.1371575275 12.7977817846 2.13514163795
2704 1 33.4185878973 15.6550466462 1.42209321919
2734 1 34.4050430032 14.2184265464 3.16395964284
2735 1 36.1337277144 15.6579007213 2.14259427312
2736 1 35.1529760042 14.2304689826 0.39297101218
2288 1 38.8348400632 12.7962582578 2.87571431541
2766 1 38.8069979078 15.6875541359 2.89244053026
2767 1 37.8743184494 14.2344516072 1.12430115135
2768 1 39.6349049765 15.6477288261 0.106433980879
2290 1 39.6381829367 12.8221182013 0.111191298609
2799 1 40.5123241676 14.2946780183 1.92883539757
2322 1 42.2034031455 12.9619036587 1.12029974727
2800 1 42.2856454898 15.7171479875 0.863747624714
2830 1 43.1596679958 14.4451000428 2.71946467814
2320 1 41.6063449233 12.7695043495 3.65960287061
2865 1 44.3526131404 14.7168477049 0.261607757197
7259 1 44.9085903316 13.0452334166 2.10431223147
6780 2 46.394496018 14.5599287828 1.50254592656
7737 1 45.0089300065 16.1578303134 2.24459734512
7290 1 48.4873600438 14.2708687913 1.99552356129
6811 1 50.0501795318 12.9045239159 3.04211923133
6813 1 49.3230841895 12.8878316753 0.212991853887
7289 1 50.0418476254 15.7336914478 3.03859562472
7323 1 50.9757360049 14.3418643717 1.24773032262
7291 1 49.22389431 15.7780672094 0.144825768949
6844 1 52.5629622458 12.8758358265 2.33908278467
6876 1 55.2487485602 12.9068572528 1.61379126387
7322 2 52.5973824678 15.7942217178 2.46509345463
7355 1 53.5192222259 14.3317404299 0.5994039497
7353 1 54.2790800748 14.319503984 3.36605130234
7354 1 55.2385815332 15.7519261927 1.61658067865
6909 1 57.993048642 12.8929458029 0.892004192457
7386 1 56.9833388262 14.3265113871 2.63068283046
7387 1 58.0001625413 15.74572045 0.8922405946
6907 1 58.7161324402 12.8941806505 3.64301721825
7385 1 58.7233603648 15.7508635106 3.64059799562
6940 1 61.4543686522 12.8949093543 2.90341686224
6942 1 60.7342657838 12.8930605858 0.166899030763
7418 1 61.4708205719 15.7416626186 2.90580601852
7419 1 59.7356023185 14.3260708368 1.90061535952
7420 1 60.7521609681 15.7411941282 0.163369951534
7452 1 62.466883345 14.3294542005 1.16862754154
6973 1 64.1635570449 12.8927333946 2.18760223929
7451 2 64.2016380351 15.7152755105 2.31673334388
7484 1 65.139330014 14.3179142805 0.448387512882
7482 1 65.9059413915 14.2878946696 3.21306090779
7005 1 66.8718354854 12.8830890137 1.45139139396
7038 1 69.6241949478 12.8693088517 0.711980853065
7483 1 66.8659309662 15.7161892472 1.45870384975
7515 1 68.6122560537 14.297077786 2.46221548642
7516 1 69.6224019093 15.7106068755 0.711515344912
7069 1 73.0827899492 12.8631212223 2.7463664139
7547 1 73.082475726 15.7172995746 2.74528052983
7548 1 71.3551535873 14.2895436 1.72651942971
7514 1 70.3475223612 15.7188362669 3.47670186787
7036 1 70.3487328589 12.8675835819 3.47604670667
7101 1 75.8142272853 12.8523327627 2.02224828636
7579 1 75.8264294365 15.7038016787 2.01995929754
7580 1 74.0888031144 14.2818159697 0.996500009794
7610 1 76.8249099606 14.2582122856 0.270548720095
7608 1 77.5527095847 14.2736083776 3.04314798069
7131 1 78.5510410455 12.8220833677 1.29976275511
7609 1 78.5662717404 15.6858278076 1.30202544183
7630 1 80.2947888821 14.2428288523 2.32879635551
7153 1 81.2686184526 12.7905530135 0.579198463087
7631 1 81.2934547093 15.6598777002 0.590037762213
7643 1 83.0129936445 14.1877549171 1.63521067427
7164 1 84.8515133304 12.770358876 2.63711682376
7629 1 82.0384306147 15.6679168763 3.34410258001
7151 1 82.0397709365 12.7931118105 3.3565122078
7642 1 84.7364843655 15.5992201073 2.66612886083
7169 1 87.460768474 12.7387615746 1.9301648779
7647 1 87.508541847 15.5843771407 1.72001937146
7648 1 85.7644096504 14.1032665197 0.8467836381
7646 1 86.5040341065 14.3593711396 3.60663983902
2870 1 1.21185628463 18.4069712652 1.6672653747
3359 1 3.19857414418 19.9577578925 0.803807750336
3348 1 2.23577952066 19.7754558773 3.29706322354
2881 1 2.87364406435 17.0842832374 0.639946394872
2879 1 2.21535228523 17.028650364 3.42121992906
2880 1 3.96816890186 18.4006558745 2.4205610999
2897 1 6.67212268143 18.4748978661 3.15541675351
2898 1 5.65463908994 17.0347259215 1.43514922428
3376 1 5.6854952049 19.9504835019 1.44792692366
2899 1 7.39814598603 18.5154241986 0.426959065015
2924 1 8.38891683335 17.0762861252 2.15730720146
2925 1 10.0816018951 18.534366223 1.16024876227
3402 1 8.35267005189 19.9681332358 2.16726106897
3433 1 11.0743598804 19.9537054736 2.91273301809
2955 1 11.1039945363 17.1120853252 2.91128667562
2956 1 12.8252416524 18.5372244363 1.90543640163
2987 1 13.8416044237 17.1117605659 3.65578522129
2989 1 14.577183588 17.113356339 0.893682887494
3465 1 13.8268098253 19.9579876635 3.65541537912
3467 1 14.5693614078 19.9575906451 0.895910207401
2957 1 11.8243306766 17.1113884853 0.173321449618
3435 1 11.812879309 19.9594124001 0.175331421022
2988 1 15.5724586679 18.5344587122 2.63677698696
3019 1 18.3059994681 18.5266473178 3.35552435654
3020 1 17.3097134199 17.1066981441 1.61078118179
3498 1 17.306611345 19.9549314864 1.61207572719
3021 1 19.0405251687 18.5272249346 0.586102262843
3052 1 20.0396653471 17.0978658402 2.33061182901
3053 1 21.77202784 18.5201005341 1.30782180012
3530 1 20.0393734184 19.9494342358 2.33028468398
3083 1 22.7726470893 17.0901244482 3.0531152232
3084 1 24.5060255721 18.5120744237 2.03446067395
3561 1 22.7737375739 19.9430249477 3.05173499087
3085 1 23.5034662567 17.0894609457 0.287277140339
3563 1 23.5038648547 19.9433453336 0.286488882839
3116 1 27.2540289428 18.5087579335 2.76554670027
3117 1 26.239715192 17.0855216638 1.01585203023
3149 1 28.9745125656 17.0864179938 1.73445150665
3595 1 26.2336452883 19.9324885149 1.01471110501
3627 1 28.9727280896 19.9402947155 1.73048586732
3148 1 29.9760609836 18.5319063678 3.46479269033
3150 1 30.6959867848 18.5141912052 0.707956829431
3181 1 31.6967936493 17.0863175448 2.4471503001
3659 1 31.7025657008 19.9534958475 2.43874094734
3182 1 33.4196430358 18.513921332 1.42119443754
3212 1 34.4032244637 17.0884577656 3.16789754741
3213 1 36.1294180353 18.5117042849 2.14273066739
3690 1 34.4067246753 19.9502154614 3.16095167938
3214 1 35.1522883472 17.0818166193 0.395293616022
3692 1 35.1479096738 19.9497692321 0.399595934687
3244 1 38.8515588291 18.5391567758 2.87802332201
3245 1 37.8772879486 17.0904993219 1.11946028452
3723 1 37.855181114 19.9324939054 1.136002492
3246 1 39.6191859876 18.5323504948 0.119131976899
3277 1 40.5611344635 17.1302680788 1.87526744075
3755 1 40.6487998531 19.9688716375 1.86524099178
3278 1 42.3151013486 18.5237922071 0.792912406679
3786 2 43.188518971 19.8064507807 2.87721622852
3308 1 43.0496087633 17.1949397551 2.64267119213
7735 1 44.7103913051 18.5540786762 1.40155554424
7734 1 46.9193918191 18.3581356204 2.77661281245
7736 2 46.5973679941 19.5034816024 0.736262507453
7651 1 46.4956239844 16.8721929611 0.471492366955
7768 2 48.5294767731 16.9560538616 1.96485211341
7767 1 49.7437963239 18.6528532716 2.99511878847
7801 1 50.8610665741 17.1993853648 1.26368803718
8279 1 50.7706716456 20.029796714 1.32583094634
7769 1 48.9141598363 18.6857687033 0.463450561628
7800 1 52.5094821734 18.6008001096 2.33058726378
7832 1 55.2437026834 18.5994248624 1.60726816669
7833 1 53.5254691886 17.1768712711 0.600652154506
8311 1 53.506066339 20.0366772363 0.608652792333
7831 1 54.2757671206 17.2085676879 3.36283498845
8309 1 54.2334506181 20.0355800684 3.34541949423
7864 1 56.9845138522 17.1735705133 2.62748873575
7865 1 58.0043546789 18.5871562226 0.894396030805
8342 1 56.9820337779 20.0224692347 2.62404553085
7863 1 58.7227453796 18.5918868001 3.63493270233
7896 2 61.4423794548 18.5916200717 2.91581216345
7897 1 59.7366388302 17.1531885774 1.89760191597
7898 1 60.7539852295 18.5690588037 0.178434061546
7930 1 62.4883476787 17.1297492716 1.16738333183
8375 1 59.7183059996 20.0176143911 1.89540797061
8408 1 62.4744280105 19.9944199252 1.17740113987
7929 1 64.1897446431 18.5630326769 2.17915618796
7962 1 65.1193341702 17.1045070969 0.447718044537
8440 1 65.1892711427 19.9830065561 0.469461842189
7960 1 65.8954456445 17.1482097673 3.21674268348
8438 1 65.9065778957 19.9939456075 3.16395128916
7961 2 66.8898740992 18.4293703262 1.45487726924
7993 1 68.625837676 17.1237371037 2.46899726933
7994 1 69.5968320794 18.5602630038 0.720207921153
8471 1 68.5854652058 19.9919620517 2.4450504977
8025 1 73.081577099 18.5643205217 2.74260508892
8026 1 71.3461786756 17.1402431238 1.72477301813
8504 1 71.3362872997 19.9843868279 1.72333500583
7992 1 70.3254188565 18.5759551189 3.46350885983
8057 1 75.8345850376 18.5568913179 2.0212398075
8058 1 74.0950059781 17.1293415116 0.998703903539
8088 1 76.8348117588 17.118132416 0.276823004901
8536 1 74.0990705892 19.9811396329 1.00357234338
8566 1 76.8482678649 19.9790225577 0.281916153605
8086 1 77.5657803315 17.1323641608 3.0427099219
8564 1 77.5785328521 19.986203278 3.03901885242
8087 1 78.5836574788 18.5510813846 1.29959219936
8108 1 80.3163628238 17.1178943788 2.31879198813
8586 1 80.3465681497 19.9812714435 2.3025278714
8109 1 81.3314862436 18.5374617903 0.567219609328
8121 1 83.0587961367 17.0998937236 1.59938959555
8599 1 83.1254485077 19.9550562193 1.54720831599
8107 1 82.0772220409 18.5490424271 3.31892531966
8120 1 84.885135677 18.5352882891 2.6394855299
3349 2 88.2150666634 19.4303039221 0.45363175921
8125 1 87.2551633749 18.2607286093 2.02567956058
8126 1 85.5892639048 16.8869903484 0.972321752273
8604 1 85.7993238059 19.9097703595 0.597952730576
3837 1 1.1950877081 21.1793087631 1.42069141169
3835 2 2.1245686935 22.3487048801 3.32764362687
3882 1 3.01080728537 22.9313040623 0.885137643189
3836 1 3.78038349772 24.3920250715 2.55341661719
3358 1 3.96643053425 21.3693150255 2.51205219301
3375 1 6.58592597783 21.4094942582 3.21601217593
3853 1 6.55429645623 24.2444264211 3.24606761513
3854 1 5.58990466642 22.882519758 1.50889165536
3377 1 7.33269202153 21.4397385047 0.458591817184
3855 1 7.37473967966 24.2626867976 0.452357627715
3403 1 10.0980766991 21.4080575148 1.2067591993
3880 1 8.33632779508 22.8298293898 2.20655716546
3881 1 10.1102143836 24.2339327443 1.19711374648
3911 1 11.0876698125 22.8104680193 2.93924653922
3434 1 12.8256003032 21.3801518703 1.91499626665
3912 1 12.8435216522 24.2313223533 1.91914178174
3943 1 13.8285571447 22.8015757503 3.66047969879
3945 1 14.5735249473 22.8040869493 0.894758822964
3913 1 11.8451069257 22.8122468001 0.179230941933
3466 1 15.5691479502 21.3801260999 2.63709247418
3497 1 18.3061985715 21.3783216554 3.35339550453
3944 1 15.5728499002 24.2284940678 2.63547605537
3975 1 18.3038907868 24.2305867842 3.35017774362
3976 1 17.3054535277 22.8039576555 1.60997355463
3499 1 19.038680188 21.3772952777 0.585460731277
3531 1 21.7713838772 21.3730957339 1.30662742293
3977 1 19.0362117744 24.2315105879 0.58293410583
4008 1 20.0379231613 22.8028711855 2.32754534848
4009 1 21.7690370063 24.2277897267 1.30430598906
3562 1 24.5074092808 21.3662179966 2.031790859
4039 1 22.7739993026 22.7982439688 3.04770629634
4040 1 24.5070204874 24.2236662582 2.02432098069
4041 1 23.503039905 22.7974849262 0.285064310277
3594 1 27.2400715895 21.3509189657 2.76180699907
4072 1 27.2443872762 24.2294382949 2.73669731225
4073 1 26.2399307014 22.7922948317 1.0092163122
4105 1 28.9331785217 22.7672851788 1.73684864007
3626 1 29.9859115042 21.3730414042 3.46088850152
3628 1 30.6930037729 21.379704455 0.704586072452
4104 1 29.9792108783 24.2219925074 3.42077835865
4106 2 30.5434067987 24.0780191763 0.667623991727