ITEM: TIMESTEP
30000
ITEM: NUMBER OF ATOMS
9560
ITEM: BOX BOUNDS pp pp pp
0.0 88.6430375159
0.0 28.55
0.0 44.3215187579
ITEM: ATOMS id type x y z
2 1 0.679023882034 0.546316150372 0.960351144671
491 1 2.73189764374 2.48293863104 0.601409891156
489 1 1.79485146833 2.35674496886 2.89753804095
481 1 0.0710424197555 2.83998201012 0.528301169988
13 1 3.14912094346 0.0558654715926 0.831970145595
5257 1 0.367922253292 0.240921138793 3.51048117546
11 1 2.60751709321 0.044250268207 3.59912424687
12 1 4.10928882103 1.53370545438 2.45495388894
29 1 6.86162933233 1.42270809554 3.18358018163
508 2 5.93260325968 2.81679813178 1.56046068839
30 1 5.80148363809 0.0597220723239 1.43299817807
490 1 4.05619545228 4.01731485559 2.41358471376
31 1 7.50263549885 1.42103158515 0.361034642939
57 1 10.1771885502 1.39586795458 1.07984560281
534 1 8.4994310215 2.84156199849 2.11002158383
565 1 11.1761712407 2.82822183674 2.83333945382
88 1 12.8955351075 1.39527029946 1.79465050402
597 1 13.88967995 2.82331326037 3.54557528502
599 1 14.6171699241 2.8116435498 0.75147198638
567 1 11.8968960434 2.80994195196 0.0478370579854
120 1 15.6131429988 1.40134050052 2.5019174725
151 1 18.3330011668 1.39058072286 3.23167982316
630 1 17.3378577087 2.8117010802 1.47199733824
153 1 19.0705882566 1.37409221632 0.486533880909
185 1 21.7914832821 1.38165925337 1.2039255846
662 1 20.0664944492 2.81010546338 2.21966068808
216 1 24.5277345473 1.37691972308 1.93358505695
693 1 22.798903595 2.80774653247 2.94874478778
695 1 23.5223239933 2.8051369638 0.189430467913
725 1 25.5375624216 2.80340118158 3.67370985955
248 1 27.2701659949 1.37255275589 2.65795438742
727 1 26.2581161464 2.80051575114 0.91802257756
759 1 29.0072772148 2.78821282952 1.64148525746
280 1 30.0334486564 1.35595204877 3.36720682004
282 1 30.7435906353 1.34516593734 0.634186852804
791 1 31.7594819108 2.78026692011 2.35673837123
314 1 33.5082396761 1.35237186913 1.35393765078
345 1 36.3058673374 1.37150877247 2.06461023475
822 1 34.521279192 2.79132348741 3.08468085183
824 1 35.2576100907 2.7887993555 0.347476162123
376 1 39.1119585261 1.39974940288 2.74624885505
855 1 37.9512998231 2.90933041338 1.1190640457
378 2 39.648208491 1.85449571951 0.113941558474
887 1 40.790475573 3.02375530483 1.83659890285
410 2 42.9230950931 1.93248565587 0.958555750045
918 1 43.58235782 3.05077955925 2.76050306608
408 1 41.7626923959 1.4346530912 3.50781331106
440 1 43.4769757122 0.0512839013033 2.59167708601
4866 1 45.5902954705 1.50402168657 1.44556124885
5824 1 46.0091408857 3.73952910928 3.02727724857
5347 1 46.3965911076 3.63673274255 0.52673531648
9168 2 45.9801259779 0.0901480932072 3.42573654193
5344 1 48.1498158956 2.88625988367 2.07753917292
5411 1 50.5674259622 2.85403619632 1.32360238682
4899 1 49.6254047787 1.18077709523 2.94764642212
4901 1 48.3697211976 1.46948777266 0.157377627944
4933 1 50.6242264344 0.0929526204718 1.16144194951
4932 1 52.3890275885 1.4352339773 2.3425246459
4964 1 55.2078275155 1.44793271675 1.62963172985
5443 1 53.4639534272 2.86405407858 0.653523154593
5441 1 54.1919421123 2.84706708706 3.36585016941
4963 2 54.3315076344 0.0315611891027 3.34220864009
4965 1 53.4291136208 0.00479912974848 0.65188706439
4997 1 57.9703825422 1.43790590881 0.941354753638
5474 1 56.9595005088 2.85820766731 2.6729670119
4996 1 56.9589878993 0.0258790403375 2.6748822866
5028 1 61.4700422058 1.43534924409 2.99504637055
5030 1 60.7203714946 1.43707146615 0.232998470284
5507 1 59.7256822968 2.8506698441 1.97129769387
5540 1 62.4429044279 2.86313801294 1.25802217779
5029 1 59.7235172009 0.0256725407742 1.97298970172
5062 1 62.4382909983 0.00941511895611 1.26252292757
5061 1 64.1371022194 1.43562750185 2.2966139591
5572 1 65.1474853557 2.85860277098 0.541869585751
5570 1 65.8576609959 2.85934450062 3.28893060726
5094 1 65.1426424042 0.0187115856653 0.551323787815
5092 1 65.8561664303 0.00700013997226 3.29507455741
5093 1 66.8724170957 1.43531223964 1.55914271641
5126 1 69.5993884219 1.44393225756 0.818998318241
5603 1 68.60762792 2.85852975497 2.55830827069
5125 1 68.6122287254 0.0090891029984 2.56203891679
5157 1 73.0610516682 1.45305398486 2.84819411421
5636 1 71.3244988581 2.86733502007 1.83607335549
5124 1 70.3280136576 1.44122457043 3.57887171983
4998 1 72.3353365659 1.45601382613 0.0965042251799
5158 2 71.3327595987 0.0143397370058 1.83795840996
5189 1 75.7639692638 1.46185431137 2.11999357952
5668 1 74.050767432 2.89742084091 1.11599856132
5698 1 76.7510650375 2.90508363448 0.383081129131
5696 1 77.4495153495 2.89442811455 3.14811559644
5220 1 76.7656985957 0.0117911736388 0.395128257985
5190 1 74.0462491778 0.0136019706345 1.11877860328
5218 1 77.4696712241 0.00554661837135 3.17310511355
5219 1 78.4515210638 1.45851125378 1.41640702507
5718 1 80.1545608961 2.86995077668 2.42074446432
5240 1 80.1642582955 0.0370696956299 2.46654992383
5241 1 81.2092174658 1.44394988938 0.680777895757
5731 1 82.9158030398 2.85633840405 1.69541270722
5239 1 81.8623831758 1.46623530512 3.48365120677
5252 1 84.60135713 1.47137771069 2.75007844897
5253 1 82.8909789376 0.0475062424422 1.77721914015
1 1 87.5571751077 1.62700672427 2.29421317437
5736 1 85.725973681 2.72706112375 0.87511159513
5258 1 85.7972829714 0.0776785651612 1.17154439504
9559 1 86.2825829346 0.0221852175371 3.6745949032
480 2 1.63381319315 4.23453869981 1.46568196185
958 1 1.29771544964 6.82184775914 1.77189529817
969 1 3.312902047 5.54673450034 0.725051368382
967 1 2.29255228915 5.24627007543 3.38687401629
479 1 0.144309442792 4.2769720188 3.10362193683
968 1 4.11376957518 6.97143933178 2.42112606994
507 1 6.8094227808 4.28030895933 3.17749885078
985 1 6.71874941534 7.04206112639 3.11450536596
986 1 5.76970054923 5.54943639072 1.36960266949
987 1 7.46109232922 7.02717371287 0.31550408641
509 1 7.48783550402 4.2035414161 0.321296322029
535 1 10.1891877856 4.24036979576 1.07264624475
1012 1 8.47852044707 5.66722007373 2.08773382937
1013 1 10.1862869852 7.08873975972 1.07373468785
1043 1 11.1782420953 5.68138390877 2.83213973999
566 1 12.9005239645 4.24132929565 1.79477187644
1044 1 12.9056857023 7.09188929178 1.79815657795
1075 1 13.8937787245 5.67706620437 3.54443008908
1077 1 14.6316789802 5.64273321167 0.754339880353
1045 1 11.9052780598 5.65981210014 0.0498528226599
598 1 15.6155766662 4.2319587009 2.50181983509
629 1 18.3363121876 4.23688465658 3.23086424813
1076 1 15.617878338 7.08959111771 2.51095918733
1107 1 18.3348642201 7.09157782034 3.23133506881
1108 1 17.3322214651 5.64388364008 1.47162343453
631 1 19.0746656182 4.24460529723 0.487587359209
663 1 21.7936974188 4.23486116057 1.20303050002
1109 1 19.0601514369 7.08012106301 0.467411109763
1140 1 20.0663249333 5.66460298541 2.21874437053
1141 1 21.7943304658 7.09275369998 1.20245853223
694 1 24.5286546505 4.23330432624 1.9323586646
1171 1 22.7993801926 5.6657930682 2.94752973907
1172 1 24.5289005694 7.09319409977 1.9320108057
1173 1 23.5224488286 5.66190066061 0.188091840041
1203 1 25.5374338746 5.66076520445 3.6726020261
726 1 27.2704743247 4.22559404227 2.65657370142
1204 1 27.2651561106 7.08933465772 2.65770066039
1205 1 26.2579718499 5.65872797389 0.917567232555
1237 1 28.9969049042 5.65385961443 1.64370186239
758 1 30.0163518132 4.21954108535 3.37649227575
760 1 30.7329017208 4.21798691323 0.634101982672
1236 1 30.0025551335 7.0852078714 3.38163701712
1238 1 30.7187955871 7.08832645542 0.6344076074
1269 1 31.7411276584 5.6518380137 2.36923406601
792 1 33.4890174989 4.21967365104 1.35953749706
823 1 36.2223880702 4.26571773443 2.10465138041
1270 1 33.4566601243 7.0942026366 1.36435383625
1300 1 34.4814249934 5.66815910765 3.10633431144
1301 1 36.2057716657 7.11087981623 2.09599878988
1302 1 35.1912442423 5.6780410592 0.359320104888
854 1 39.00249977 4.31667321377 2.85697501096
1332 1 38.9934359273 7.14329866897 2.81938632056
1333 1 37.9529553888 5.71782309233 1.09641536643
1334 1 39.6952531235 7.15432782655 0.0546620096588
856 1 39.6893231249 4.40144746837 0.108402065033
1365 1 40.7745661374 5.75634682783 1.8343519376
886 1 41.6964004315 4.310798679 3.60106977821
1396 1 42.4884096005 4.36850413211 0.760986812384
1364 1 41.743621071 7.21399512687 3.5191933066
1366 1 42.4510180708 7.16443339861 0.720207473275
6217 1 43.5648377644 5.53532586417 2.50142297662
5825 1 44.3064176799 5.63012794429 0.0389128442206
5346 2 45.858746543 5.71073354689 1.64592539072
6302 1 46.1944771095 7.86016725826 1.05905697461
5822 1 48.0722387012 5.64382669076 1.8991523072
5377 2 49.9324855056 4.56147252133 3.15004957594
5855 1 50.0211797072 7.1769101853 3.00276711301
5889 1 50.7171382712 5.68244724372 1.22810461187
5857 1 49.0394904685 7.25310550502 0.388115799509
5410 1 52.4448219297 4.27583802573 2.34425422201
5442 1 55.2233206737 4.28028427694 1.6540091869
5888 1 52.5366811761 7.16690720695 2.34468927649
5920 1 55.2502967141 7.1268032838 1.66324407693
5921 1 53.4792639611 5.68884533883 0.622655832921
5919 1 54.2191368591 5.70260110953 3.38358663244
5475 1 57.9805969387 4.27890216987 0.943970907297
5952 1 56.9724937801 5.70323121455 2.68145159796
5953 1 57.9822654656 7.13968884789 0.94964920497
5506 1 61.4275410409 4.30125311871 2.96660238863
5508 1 60.7148495231 4.28774820936 0.228598998142
5984 1 61.4428436838 7.15094346438 2.97616322434
5985 1 59.7096286868 5.71501950624 1.96318295299
5986 1 60.7120883757 7.15234016955 0.227105290715
6018 1 62.440250229 5.72373525154 1.2409728855
5539 1 64.1707154366 4.30911958703 2.24640972621
6017 1 64.1660153415 7.15258503748 2.25821303719
6050 1 65.1665613003 5.7265460994 0.512122637708
6048 1 65.8870821362 5.72452792254 3.27960069981
5571 1 66.8782356628 4.29121443097 1.54155990269
5604 1 69.6010078323 4.29557930405 0.814903422062
6049 1 66.8882255669 7.154490454 1.53119146517
6081 1 68.6044736417 5.7211132533 2.55926970585
6082 1 69.6010531017 7.15490155883 0.809235643314
5635 1 73.0394537988 4.28592361325 2.86599266362
6113 1 73.0438796775 7.14874767566 2.86927196031
6114 1 71.3166384734 5.72472689491 1.83569087223
5602 1 70.3302023113 4.28785742854 3.57632032398
6080 1 70.3297961726 7.14793579957 3.58134358358
5476 1 72.298758286 4.28649484043 0.0856507989661
5954 1 72.3025922381 7.1656566075 0.0809585281792
6146 2 73.9007466995 5.723598934 1.13949493294
5667 1 75.7720757742 4.35095269306 2.09144976136
6145 1 75.7804468315 7.07536824704 2.08784180884
6176 2 76.8638999808 5.71433435247 0.200665790502
6174 2 77.5012886584 5.69796900438 3.28157596049
5697 1 78.4515682964 4.2997354146 1.40510912772
6175 1 78.4544627105 7.11058848599 1.40366578578
6196 1 80.1496656158 5.67890741793 2.43166122117
6197 1 81.1474096258 7.11261913414 0.685105711778
5719 1 81.1883505182 4.28134965947 0.66393661051
5730 1 84.568576889 4.20830437426 2.78260096757
6208 1 84.5574933591 7.10435785856 2.83286283922
6209 1 82.8762914829 5.68072280971 1.71667460237
6195 1 81.8355548795 7.0674072198 3.48622535599
5717 1 81.8638596569 4.243036888 3.46679882858
5735 2 86.9548082397 4.18286310777 1.96238366015
6213 1 87.4491059496 6.69545663451 1.87548520429
6214 1 85.3285063959 5.77184111693 1.08758826411
1436 1 3.11166249671 8.4581545223 0.752930365109
1925 1 3.02459320619 11.3890510182 0.639862879443
1915 1 1.38388845821 9.90352945213 1.74090531183
1445 2 2.67301908217 8.61134225759 3.04315027803
1923 1 2.552443516 11.2735262007 3.42371736941
1435 1 0.0823114556179 8.62718612255 3.17380736495
1446 1 4.23235417313 10.0027227596 2.34329529
1463 1 6.72241691092 9.95447988581 3.0858747114
1464 1 5.83186028197 8.46033055746 1.33679134689
1942 1 5.79530701464 11.4282364347 1.29836459576
1465 1 7.47745740608 9.93018387415 0.328345940239
1490 1 8.4449182816 8.50060871599 2.08932822074
1491 1 10.1803958264 9.93646474624 1.0799249107
1968 1 8.45759915162 11.3787324278 2.07397230274
1999 1 11.1754979864 11.3758457708 2.82962626433
1521 1 11.1755775443 8.53073172305 2.83145771897
1522 1 12.9003887464 9.94477136647 1.79901275485
1553 1 13.8989157086 8.53485244562 3.54658735196
1555 1 14.6247275653 8.51155450811 0.767567105439
2031 1 13.8860724282 11.3658235863 3.52698638214
2033 1 14.6219947203 11.370825719 0.770558299416
1523 1 11.906683511 8.50922075677 0.0524064674281
2001 1 11.9049663361 11.362615935 0.0539071223782
1554 1 15.6191011314 9.95197982152 2.51383879809
1585 1 18.3396955199 9.95378918957 3.23395351325
1586 1 17.3385183971 8.51439600573 1.48646637272
2064 1 17.3387401776 11.3791563767 1.49040245415
1587 1 19.0631421422 9.94678284399 0.470998258381
1618 1 20.0647061341 8.52060291284 2.21639658541
1619 1 21.7935738611 9.95145999465 1.20181890016
2096 1 20.0670979047 11.38188692 2.21731424319
1649 1 22.8000409732 8.52582649996 2.94750813437
1650 1 24.5290172444 9.95638242548 1.93341636731
2127 1 22.8005117508 11.3861928437 2.94842071662
2129 1 23.5206852576 11.3831451973 0.18774431515
1651 1 23.5217946583 8.52201867882 0.187726324164
1681 1 25.5368464119 8.52467953315 3.67440652658
2159 1 25.5390773328 11.3911854227 3.67890240668
1682 1 27.2636287587 9.95725966968 2.66083044518
1683 1 26.2558124607 8.52353212512 0.918094325074
1715 1 28.9894857001 8.52223854511 1.64453687137
2161 1 26.2556664257 11.3887303853 0.919108626933
2193 1 28.9888021945 11.3899063391 1.64381802476
1714 1 29.9950779952 9.9537447508 3.3839241464
1716 1 30.7135475536 9.95736483789 0.630512166789
1747 1 31.7245571779 8.5217694799 2.37175394709
2225 1 31.7225887908 11.3863484766 2.368198366
1748 1 33.4496206977 9.95552511255 1.35672551888
1778 1 34.4635696379 8.52397326196 3.10267353672
1779 1 36.1876624751 9.95091073593 2.0805291464
2256 1 34.4557817624 11.3790603937 3.09650413851
2258 1 35.1748893827 11.3894149722 0.336991699067
1780 1 35.1778819604 8.52569157618 0.345405406934
1810 1 38.9558974762 9.95484636563 2.79580714952
1811 1 37.9339694509 8.53598613197 1.06885276398
2289 1 37.9118133028 11.3677248378 1.05189431436
1812 1 39.6550705783 9.95810156765 0.0351005384415
2321 1 40.696100593 11.3494407251 1.7586598668
1843 1 40.7504874116 8.5892886306 1.76674617493
1874 1 43.589282922 8.54197040107 2.38638391828
1844 1 42.5343144336 9.98088880627 0.69587055
2352 1 43.4051571963 11.46054881 2.39645184769
1842 1 41.794673017 9.95582555669 3.51903549391
6695 1 45.3096328366 10.1135911646 1.62665763229
6693 2 46.9602623411 11.5339682869 0.797175596969
6334 1 48.1015411045 8.45278337436 2.56158953346
6812 1 48.0338009828 11.1248420008 2.63777380713
6333 1 49.9602444866 10.0198439903 3.16036927459
6335 1 48.9956385363 10.0423629401 0.505876212845
6367 1 50.80676178 8.63318739279 1.34378998599
6845 1 50.808198688 11.4210394785 1.43078873481
6366 1 52.5636206687 10.0282184275 2.4186141709
6398 1 55.2814390712 10.0177617095 1.68961476833
6399 1 53.569441975 8.58676556421 0.662688584985
6877 1 53.5865239416 11.4536347454 0.705437041271
6875 1 54.2714798497 11.4641077762 3.42668874488
6397 1 54.2745378582 8.57670985864 3.41172163335
6430 1 56.9832401802 8.56687515387 2.69460252348
6431 1 57.99345412 10.0155590033 0.9621333067
6908 1 56.9954784532 11.4504675463 2.70157197871
6462 1 61.445769595 10.0125057144 2.98164179962
6463 1 59.7120354155 8.57793594976 1.96922756737
6464 1 60.7184363036 10.019118231 0.232177539573
6496 1 62.4430917899 8.58454898293 1.23971717105
6941 1 59.7228743187 11.4459350639 1.97456655491
6974 1 62.4489072167 11.4532463405 1.24314095554
6495 1 64.1687351122 10.0143527273 2.2587585039
6528 1 65.1673203288 8.58415629423 0.511922163452
7006 1 65.1619448694 11.4543139101 0.517877398989
6526 1 65.8907303118 8.58263039277 3.27896725403
7004 1 65.8903190523 11.4454481845 3.28106548716
6527 1 66.8879019058 10.0170707896 1.53388269406
6559 1 68.6092197158 8.58376732786 2.55726347186
6560 1 69.6089304218 10.0168510318 0.812470998177
7037 1 68.6090514029 11.4459031219 2.55993532362
6591 1 73.0621591269 9.99083665976 2.85268510792
6592 1 71.3260167095 8.57733833078 1.83846894967
7070 1 71.3355764988 11.4377551681 1.84185256684
6558 1 70.3334670028 10.0090185367 3.58324482785
6432 1 72.3401249262 9.99856517213 0.102167703566
6623 1 75.7777780107 9.96581286419 2.11843351789
6624 1 74.0641301098 8.53687366717 1.11513264128
6654 1 76.7694523151 8.53284676828 0.374656680528
7102 1 74.0648908757 11.4284674056 1.1181003848
7132 1 76.7819046843 11.4274938042 0.388680668957
7130 1 77.4818921689 11.4123478152 3.15538306504
6652 1 77.4593548414 8.51638717062 3.13952872961
6653 1 78.4695963121 9.9761848113 1.4088620079
6674 1 80.1524963704 8.52727978778 2.43372734796
7152 1 80.1819143158 11.4140181325 2.45628477132
6675 1 81.1453401023 9.99181503232 0.700014417054
6686 1 84.6073221738 9.90356786844 2.67917024489
6687 1 82.8222454494 8.45998375366 1.78878356035
7165 2 82.8091425004 11.4168960287 1.89035870432
6673 1 81.8364027236 9.94523058498 3.49327154306
6561 1 83.5193776255 9.92129254927 0.0705434791326
1437 1 -0.057463601795 8.4282805256 0.435908879301
6691 1 87.4313427212 10.2064925005 1.82576743398
6692 1 85.7313693566 8.36963834094 1.12688973707
6593 2 85.5916855028 10.480077953 0.19342006906
1914 1 1.07171624362 12.2987135962 1.75353491182
2392 2 1.45412908133 15.8543909008 1.35520616951
2401 1 2.27434149676 14.0906472541 2.96189415878
2403 1 2.91029078705 14.169233422 0.575043879804
7169 2 0.162843870094 13.9708697239 3.49502250843
2402 1 3.93393386836 15.7772197523 2.24746037367
1924 1 4.06082715842 12.8254221823 2.29341688741
1941 1 6.76144409962 12.8572120865 3.04702434776
2419 1 6.77918715551 15.7341677001 3.0108191468
2420 1 5.7109376251 14.2991708764 1.31165410313
2421 1 7.46615515275 15.6661483964 0.282398884332
1943 1 7.46892844949 12.8333610775 0.31438103969
1969 1 10.1897528627 12.801587592 1.07101841432
2446 1 8.4702451222 14.25791697 2.04571884717
2447 1 10.2186703745 15.6411433422 1.08400505259
2477 1 11.1890787278 14.2279561678 2.82281700098
2000 1 12.9024569608 12.7961533752 1.79710004042
2478 1 12.8969820783 15.6654024322 1.78881914196
2509 1 13.8845094382 14.2482563424 3.52147098527
2511 1 14.6174781298 14.2312018435 0.769004456219
2479 1 11.9207760149 14.2141277949 0.0510120446802
2032 1 15.6149795903 12.8066584061 2.51182163747
2063 1 18.3395249465 12.8118129558 3.2339481136
2510 1 15.6122788018 15.6640067125 2.51368820015
2541 1 18.3350586035 15.6663640895 3.23842420661
2542 1 17.3350970879 14.235799236 1.49131687402
2065 1 19.0626907233 12.8082759048 0.471069696338
2097 1 21.7934146458 12.8120910618 1.20215063361
2543 1 19.058889249 15.6668033908 0.47254769025
2574 1 20.0651482933 14.2404462257 2.21854627205
2575 1 21.7912019252 15.6698468005 1.20283506389
2128 1 24.5291270262 12.817717618 1.93463883681
2605 1 22.7992032269 14.2443425825 2.94935592377
2606 1 24.5283881253 15.6733557332 1.93372029738
2607 1 23.5197326467 14.2429660352 0.187306710122
2637 1 25.5415455891 14.2517367201 3.68120538439
2160 1 27.2670980698 12.8235994172 2.6645649522
2638 1 27.2717267717 15.6785412786 2.6613518036
2639 1 26.2564232308 14.2482663931 0.917502195033
2671 1 28.9917838708 14.2490701765 1.63643045382
2192 1 29.9987371532 12.8222814263 3.38328614813
2194 1 30.7168557033 12.8222857215 0.624224328863
2670 1 29.9950150931 15.6606528159 3.35337076582
2672 1 30.7260705104 15.682474858 0.620758139372
2703 1 31.7300379379 14.2455768992 2.35828196786
2226 1 33.4543944059 12.817636171 1.34946940488
2257 1 36.1884016225 12.8026121874 2.07120559434
2704 1 33.4658226427 15.6776674017 1.34594097842
2734 1 34.461450043 14.233954302 3.08920170955
2735 1 36.1954796315 15.6597479945 2.06956345103
2736 1 35.1904351004 14.2507030522 0.329464189831
2288 1 38.9006845661 12.7610463369 2.79436375781
2766 1 38.8783843635 15.6493217911 2.79587846118
2767 1 37.9298998615 14.2259399126 1.04178419891
2799 1 40.5552708664 14.1469986583 1.75613526223
2768 1 39.6561716112 15.6575109919 0.00581456096069
2322 1 42.368881508 12.7548179233 0.663711998156
2800 2 42.1383494708 15.457099814 0.864976468626
2830 1 43.2896875282 14.2279387891 2.39715875419
2320 1 41.6451445663 12.7980409474 3.48764166098
2798 1 41.5715179285 15.6257036361 3.46736516797
7259 1 45.0321452178 12.8682524764 1.20793397681
6780 1 46.0178830018 15.3409162776 0.561745610199
6778 2 45.526947041 14.5520099284 2.5588749127
7768 1 47.3185375223 15.6669566399 3.18940784332
7290 1 47.7583131518 13.6341565451 2.10957609189
6811 1 49.8695505903 12.8787864849 3.11139505924
6813 1 49.1196241419 12.7414040669 0.41240900433
7289 1 49.7820499101 15.6419483505 3.09632439208
7323 1 50.8301549694 14.3065323926 1.32894532572
7291 1 48.8179296796 15.6144050744 0.834487634196
6844 1 52.532607035 12.9001440918 2.40851234817
6876 1 55.2637714463 12.9019770045 1.68992750363
7322 2 52.5876118008 15.7032276685 2.55858075585
7355 1 53.5228762187 14.3197269738 0.686573907061
7353 1 54.2805044836 14.2876249243 3.44324119574
7354 1 55.2698969319 15.7108451121 1.70800291353
6909 1 58.0027336195 12.8853850168 0.964755848317
7386 1 57.0068071568 14.3048175842 2.71015279385
7387 1 57.9979418984 15.7384274146 0.965620274455
6940 1 61.4548610919 12.8780510027 2.98531704724
6942 1 60.7286295415 12.8902783428 0.234732520408
7418 1 61.4619403477 15.7419016912 2.98443108525
7419 1 59.7327125515 14.3123252159 1.97513885059
7420 1 60.7295355527 15.7415897154 0.232213275231
7452 1 62.4518205462 14.313280622 1.25696322787
6973 1 64.1718309724 12.8877291015 2.25990444763
7451 1 64.1853370061 15.7565691734 2.27780327373
7484 1 65.1664737465 14.3155890796 0.529621828173
7482 1 65.8974447409 14.3221308028 3.28107690501
7005 1 66.8827368919 12.8838048581 1.53848322456
7038 1 69.610337164 12.8790238551 0.821794981087
7483 1 66.8767895641 15.7535217148 1.541547158
7515 1 68.5984237357 14.31829458 2.56650748191
7516 1 69.5991515434 15.742301816 0.833949454715
7069 1 73.0622774139 12.863757723 2.86340423227
7547 1 73.0617974683 15.7267014876 2.8681234505
7548 1 71.332388784 14.3043064961 1.84838422656
7514 1 70.315365372 15.7407934613 3.58525240968
7036 1 70.3314920939 12.8717656198 3.58477976189
7388 1 72.3422591829 15.7302750533 0.109257215541
6910 1 72.342072337 12.8711214682 0.109744034611
7101 1 75.7858778433 12.8604902316 2.13906943469
7579 1 75.7976248957 15.7290113003 2.14841940216
7580 1 74.0690689025 14.2993843471 1.12564465242
7610 1 76.8012390001 14.302889708 0.405370793851
7608 1 77.5076435742 14.2926671934 3.16694329265
7131 1 78.5053599419 12.8585463019 1.42263919313
7609 1 78.5360277838 15.7353811299 1.43345136404
7630 1 80.2333250179 14.2855689513 2.45977049943
7153 1 81.2165787598 12.8278647093 0.707350781935
7631 1 81.2771235627 15.7170537196 0.735479460075
7643 1 82.9156819708 14.2365956895 1.80878405613
7164 1 84.5746763664 12.7668411226 2.82357562471
7629 1 81.9690206391 15.7068400735 3.53489020919
7151 1 81.8848576013 12.8435581142 3.55445831673
7642 1 84.6092207193 15.6449473836 2.87566874854
7517 1 83.95847869 15.6585312129 0.151228460186
7039 1 83.9099264436 12.7258207327 0.161250279478
7170 2 87.0306923966 12.5080903731 1.89457749153
2393 1 88.6100218787 14.2396021851 0.78769862828
7647 1 87.571623671 15.9116892132 2.2436742584
7648 1 85.697498823 14.2032211168 1.15130526438
7646 1 86.2771654431 14.195238559 3.62895989705
2870 1 1.57727908535 18.491209641 1.53423431607
3359 1 3.27092650766 19.9484309846 0.622303144047
3348 1 2.34450727653 19.8859553894 3.51780333173
2881 1 3.04546198327 17.0466918405 0.273286901279
2871 1 0.103729262175 17.0736929106 0.0893709932735
2879 2 2.65120557423 17.4824372653 3.61810173536
2880 1 4.15621102751 18.5015615614 2.32437112045
2897 1 6.73700030666 18.4879298949 3.01101577635
2898 1 5.74489266194 17.0748837111 1.21921911813
3376 1 5.75842097386 19.9733087386 1.2637931867
2899 1 7.48812606894 18.5135158626 0.242501336449
2924 1 8.48344055096 17.1121825678 1.9926761273
2925 1 10.1756675423 18.5441672444 1.03244957423
3402 1 8.43566271986 19.9486031946 2.01288064602
3433 1 11.1603885663 19.9490850026 2.78734443727
2955 1 11.1798667258 17.1052413306 2.79639328699
2956 1 12.8891881087 18.5303415379 1.78228470245
2987 1 13.8916742079 17.0947537741 3.5377723131
2989 1 14.6139145556 17.0966817027 0.76892781655
3465 1 13.8846960141 19.9546772652 3.53594459031
3467 1 14.609473578 19.9586768886 0.768958964776
2957 1 11.8986410365 17.1012824842 0.0453367075988
3435 1 11.8799338156 19.9638342438 0.04491612356
2988 1 15.610345532 18.525653576 2.51598481842
3019 1 18.3331402952 18.5218560399 3.24156200433
3020 1 17.3332437833 17.0954511369 1.49279299068
3498 1 17.3314038116 19.9538503678 1.4934229136
3021 1 19.0562332855 18.5244789951 0.473721531754
3052 1 20.0613306332 17.0956176872 2.22073151823
3053 1 21.788927042 18.5241327281 1.20441757654
3530 1 20.0598389739 19.9500020934 2.22179597897
3083 1 22.7969972614 17.0975393721 2.95045046679
3084 1 24.5286748921 18.5254616061 1.93565880666
3561 1 22.7967540257 19.9480052782 2.95253330547
3085 1 23.5187938083 17.0996848371 0.187964925537
3563 1 23.5179001138 19.9520586985 0.190192252802
3115 1 25.5413169037 17.0997010547 3.67935643474
3593 1 25.5448999862 19.9447215283 3.68473182763
3116 1 27.2749969546 18.524116808 2.6637707229
3117 1 26.2577255567 17.102912892 0.916764310005
3149 1 28.9971407361 17.1048145253 1.63257313693
3595 1 26.2606049903 19.9532617827 0.921496239367
3627 1 29.001750609 19.956363234 1.64166159847
3148 1 30.0012385194 18.5402837359 3.35667504734
3150 1 30.7338182528 18.5344924271 0.623255530172
3181 1 31.7393558238 17.1021548522 2.35412635169
3659 1 31.7438297929 19.9557721661 2.36410196125
3182 1 33.4758578582 18.5327971293 1.3500812391
3212 1 34.4718372481 17.0929347527 3.08741682261
3213 1 36.2016722535 18.528867696 2.08073308086
3690 1 34.4731763443 19.953426845 3.09981083714
3214 1 35.2072634785 17.1111965218 0.330506323584
3692 1 35.2159253135 19.96965999 0.3412027779
3244 1 38.9045170365 18.5342063381 2.81571559866
3245 1 37.9265462243 17.093331567 1.05612236781
3723 1 37.9350329607 19.9676380514 1.08753927362
3246 1 39.6275410651 18.5225283571 0.0508287794599
3277 1 40.5623556242 17.0842717591 1.77567667486
3755 1 40.624805256 20.0094274853 1.82668298097
3278 2 42.0953987409 18.5876157377 0.666653214505
3786 2 43.262436507 20.2900705536 2.94926881088
3308 1 43.1450605853 17.0057105627 2.35308972828
3276 1 41.5906525937 18.528687856 3.47794030461
7735 1 44.2503146579 18.9501339162 1.1595854774
7737 1 45.5788858059 17.1349504343 1.90245314025
8212 2 46.2602166766 19.1057835771 2.84268841699
8246 1 48.0289617333 20.2194990396 2.07034411822
7734 1 48.0780169115 17.5310231206 2.20847097369
7767 1 49.9606546719 18.5505100116 3.09882504477
7801 1 50.8428583398 17.0447723552 1.39262041679
8279 1 50.8656718279 20.0128440565 1.4100229381
7769 1 49.242527999 18.5770237994 0.454461744694
7800 1 52.53824575 18.5308158775 2.42889621836
7832 1 55.2754583238 18.5710953673 1.71333860925
7833 1 53.5946058475 17.1291933737 0.722914810005
8311 1 53.5781995782 20.010262408 0.73004731559
7831 1 54.2838696396 17.1517366207 3.45504042565
8309 1 54.2498068292 19.996908326 3.43959659114
7864 1 57.0037733605 17.1566808282 2.71321909992
7865 1 57.9864457208 18.58779506 0.963391741696
8342 1 56.9936280371 20.0210166685 2.70746058629
7896 1 61.4520687825 18.6075773964 2.98472642586
7897 1 59.7306253822 17.1680982549 1.97438308117
7898 1 60.717216805 18.5843002057 0.228037925843
7930 1 62.4487820019 17.1742448727 1.25616623269
8375 1 59.7000099421 20.0052200133 1.95955444305
8408 1 62.4547663726 19.9922283644 1.22885308491
7929 1 64.1748804716 18.5946688321 2.26982841863
7962 1 65.1450009947 17.152766052 0.521251457176
8440 1 65.1414734882 20.0093996397 0.517003623342
7960 1 65.9101021061 17.1896786104 3.27812617283
8438 1 65.9006999686 19.9904849926 3.28720952178
7961 2 66.8574387025 18.584762865 1.41589382079
7993 1 68.5809741647 17.1744369986 2.5729427078
7994 1 69.5882713704 18.5685528094 0.828948710467
8471 1 68.5850927006 19.9726062677 2.57532392316
8025 1 73.064258555 18.5702571809 2.86710753864
8026 1 71.323586861 17.1584818209 1.85007480574
8504 1 71.3224073195 19.9830290629 1.84853819725
7992 1 70.3086212012 18.5682253884 3.59263222374
7866 1 72.342714219 18.5716974048 0.101768945434
8057 1 75.8032476939 18.5802304248 2.14862946755
8058 1 74.0734967631 17.1539734984 1.12624634103
8088 1 76.8169799543 17.1611662971 0.406865475509
8536 1 74.0709709366 19.9991653426 1.1242574966
8566 1 76.8166858353 20.0043625959 0.404549705763
8086 1 77.5234309322 17.1612862211 3.17592899335
8564 1 77.5225673642 20.0134094937 3.18364426359
8087 1 78.5529592337 18.5864162373 1.43356959386
8108 1 80.276802752 17.1621080185 2.46874466959
8586 1 80.2874243913 20.0058054118 2.46892279468
8109 1 81.3178905312 18.5809808193 0.713232350428
8121 1 83.0047951916 17.1627470564 1.80906017076
8599 1 83.0581493206 20.0079647984 1.76768917685
8107 1 82.0140100696 18.5924995215 3.52052789414
8120 1 84.7778398357 18.660205839 2.87118364932
7995 1 84.0632563478 18.534673373 0.0476427089129
3349 2 88.2635745567 19.3425559892 0.629558781431
8125 1 87.560812549 18.3853284276 2.46893619705
8126 1 85.6389324167 17.1563425123 1.29239153983
8604 1 85.9062668962 20.0066291023 1.16446061646
3837 2 1.80054396292 21.1814156563 1.75560222647
3882 1 3.0596336269 22.9000477874 0.720826074748
9081 2 1.47865626698 24.2561271839 2.06038967329
3835 1 2.33004769158 22.7943398308 3.58880445887
3836 1 4.07524038414 24.228667153 2.52486399257
3358 1 4.09318880734 21.3899598533 2.43916482661
3375 1 6.75151608911 21.4118427929 3.06790075053
3853 1 6.71540821329 24.2593919329 3.1472846598
3854 1 5.69404061265 22.8394419334 1.34799078702
3377 1 7.41598919882 21.4382254205 0.314939102646
3855 1 7.42212489251 24.2582773455 0.349224017114
3403 1 10.1744891512 21.4057958408 1.08044567207
3880 1 8.44223976377 22.8350320501 2.07501085515
3881 1 10.1664342154 24.254552083 1.07599918459
3911 1 11.1619161435 22.815775043 2.81374423448
3434 1 12.8839107747 21.3859337839 1.7891468525
3912 1 12.8883522912 24.2452626294 1.79624518989
3943 1 13.882322941 22.8080468467 3.54040223939
3945 1 14.6052350322 22.8146726363 0.767205473226
3913 1 11.8874497039 22.8240879152 0.0508038563144
3466 1 15.6076573307 21.3831531428 2.5157198775
3497 1 18.3340418186 21.3790019147 3.24026306433