ITEM: TIMESTEP
8000
ITEM: NUMBER OF ATOMS
9560
ITEM: BOX BOUNDS pp pp pp
0.0 88.6430375159
0.0 28.55
0.0 44.3215187579
ITEM: ATOMS id type x y z
2 2 1.37076312093 1.48837266167 1.48382282182
491 1 2.94081342402 2.88292632842 0.575306536082
489 1 2.42284514075 2.97897247022 3.37837719766
1 1 0.178320935098 2.58317180441 3.29265237065
11 1 2.12088324344 0.354160582623 3.25389212407
13 1 3.65014949561 0.536566445644 0.580140532079
12 2 4.24596593576 1.68444711693 2.45309574852
29 1 6.67505405087 1.45002619885 3.05822031068
508 1 5.62218274917 2.79612456041 1.0531510178
30 1 5.81697710061 0.0258604150774 1.18437572724
31 1 7.5161999039 1.48042065945 0.30873474951
57 1 10.1590907642 1.47954307625 1.01829605635
534 1 8.39866435896 2.89475362166 2.04196930786
56 1 8.42748055956 0.0377158966335 2.05058700837
565 1 11.1508569998 2.91230430728 2.76877977294
88 1 12.8714574952 1.47637508127 1.72592669576
597 1 13.8429712177 2.91567369628 3.47296575076
599 1 14.5837635017 2.89678300187 0.689744645453
121 1 14.5851305002 0.0341750290677 0.693122075637
119 1 13.8482401609 0.0401136623303 3.47330827618
87 1 11.1403743551 0.0494533706741 2.764811336
120 1 15.562804943 1.46913191487 2.43455514959
151 1 18.2901044835 1.45774734699 3.16762680069
630 1 17.2865719456 2.87497955845 1.40643141712
152 1 17.2861411584 0.0367210050913 1.41059132154
153 1 19.0171826597 1.44802922951 0.399285412602
185 1 21.7648517385 1.44036770741 1.14468495579
662 1 20.0266464019 2.87313019062 2.1531181004
184 1 20.027041012 0.0218233957368 2.15412003109
216 1 24.5065146522 1.43306451298 1.87729312196
693 1 22.7705452989 2.86735831769 2.88825294016
695 1 23.5020434794 2.86079070592 0.133235975808
725 1 25.5154593608 2.85975392956 3.61725848029
215 1 22.771180936 0.0113368235077 2.88900504134
217 1 23.5016596396 0.00672237140931 0.134266787907
247 1 25.5156451152 0.0034130776681 3.61913806554
248 1 27.2503510864 1.42511682362 2.60635533194
727 1 26.2405339401 2.8550770202 0.865106378855
759 1 28.9799647531 2.85041908595 1.59437337602
281 1 28.9722490519 0.00107453304551 1.6045417096
280 1 29.9873724871 1.41798254231 3.33156238936
282 1 30.7041506788 1.41806968359 0.589161864869
791 1 31.7155205451 2.84781332403 2.31911205643
314 1 33.4338529745 1.4116333054 1.31078005055
345 1 36.1637956076 1.40224270301 2.04370173529
822 1 34.4494401074 2.84356663139 3.04805029236
824 1 35.1794366456 2.84092934692 0.299510094163
376 1 38.8794054038 1.35607010652 2.80966221484
855 1 37.9185489301 2.78380975851 1.04933681918
378 1 39.6580502058 1.32364375772 0.0467000698801
887 2 40.4623769079 2.79777649656 1.9932440777
410 1 42.3442852935 1.36033276613 0.917395099338
918 1 43.9115818986 2.71110165529 2.56050004489
440 1 43.5310976187 0.0505083716728 2.63205683225
408 1 41.7834762316 1.45887253876 3.47943815314
4866 2 45.8350509571 1.2672567008 2.81816346082
5344 1 47.8854174328 2.41370646827 2.42498449497
5346 2 44.9840413323 4.04154214401 0.846976497127
5378 1 46.0092899538 1.60117912447 0.500709645639
4899 1 49.7928944179 1.3860259746 3.18175081863
5411 1 50.5271822907 2.89066194713 1.36816162192
4901 1 48.9041782109 1.12822562228 0.496101619749
5347 2 48.0498177632 3.15561682473 0.13706159364
4933 1 50.8320604906 0.0639935963374 1.40935496855
4932 1 52.478309454 1.46757758207 2.4450676918
4964 1 55.2545791229 1.41657231704 1.73416685851
5443 1 53.4914866843 2.84283886869 0.702458941574
5441 1 54.2362074401 2.8310664471 3.47237141505
4965 1 53.5161443516 0.0165105518662 0.702565187462
4963 1 54.235040407 0.00728291870064 3.4636570421
4997 1 58.0104043417 1.38067069022 1.02804077057
5474 1 57.0071787199 2.79952996845 2.76462379477
5028 1 61.4630063544 1.39928991891 3.03034998314
5030 1 60.7393189372 1.37991849362 0.289682785093
5507 1 59.7245807049 2.79469161805 2.04992035002
5540 1 62.4519947303 2.81876263706 1.30223536334
5061 1 64.1708525611 1.39596024914 2.32199066999
5572 1 65.161747574 2.83063934295 0.575802978256
5570 1 65.8892007911 2.82881499288 3.34939351857
5093 1 66.8859885276 1.40602840849 1.59957012649
5126 1 69.6069678332 1.4140509854 0.879774190378
5603 1 68.6106383849 2.83803687296 2.62711468823
5157 1 73.049320711 1.41355128338 2.9318260773
5636 1 71.3329312656 2.84660787992 1.90499346043
4998 1 72.3242710243 1.41826362176 0.162157116053
5124 1 70.331086297 1.41288921515 3.65218309431
5189 1 75.76684454 1.41599212564 2.21868507883
5668 1 74.0485497981 2.85230938786 1.18619986513
5698 1 76.764802538 2.85238556882 0.476084158811
5696 1 77.4979498906 2.84181765459 3.24987090364
5219 1 78.483036238 1.41740462693 1.50792551822
5718 1 80.2163006658 2.84178757591 2.54653226737
5241 1 81.1740674114 1.4283677901 0.778602056541
5731 1 82.9141441614 2.8286240255 1.81921468179
5239 1 81.9337530955 1.41421942192 3.58697230491
5252 1 84.605504352 1.41319330064 2.84536334034
5127 1 83.9001959611 1.41609222147 0.0308065498418
5253 1 82.8719464897 0.0342493409157 1.79520488782
5257 2 87.102482112 1.3330661481 2.18547767426
5736 1 85.5822027954 2.80176606416 1.11801741463
481 1 88.3982736471 2.75234057218 0.333142573565
480 1 1.24474068215 4.16464948864 1.65164320547
958 1 1.16399867174 7.19095746708 1.71424949585
969 1 2.87858761136 5.8297858995 0.671862343176
967 2 2.46095544415 5.63416765592 3.27199996768
479 1 0.224060511123 5.43426067402 3.30351394834
490 1 4.06404345995 4.30297735521 2.23615972555
968 1 3.92257721513 7.25390496305 2.39265638424
507 1 6.71388860091 4.35165879358 2.97768255347
985 1 6.66402451907 7.16767615602 3.01110909904
986 1 5.64024722927 5.75758966681 1.22526241472
987 1 7.35568150523 7.15292745447 0.232866653396
509 1 7.38904114784 4.32811290262 0.278044818136
535 1 10.1437509733 4.31662018145 1.01232852712
1012 1 8.41714539884 5.76188041002 2.00274900098
1013 1 10.1199730795 7.17658450485 0.99796110795
1043 1 11.1465579975 5.74796982027 2.757387985
566 1 12.8493386844 4.31233807986 1.71097211667
1044 1 12.8389020008 7.1904482298 1.71051143263
1075 2 13.8940020874 5.76013971442 3.33075531323
1077 1 14.5807706107 5.75219551016 0.704248375714
598 1 15.5893547636 4.30814056102 2.43274913381
629 1 18.2900863283 4.30859100695 3.16665775274
1076 1 15.6029932908 7.19632055994 2.4493535558
1107 1 18.2967603895 7.17612418882 3.17568820704
1108 1 17.306141855 5.74417684383 1.42762665064
631 1 19.0262443878 4.29921942213 0.406319948234
663 1 21.7648084114 4.29562656029 1.14521998176
1109 1 19.0378838427 7.15900009178 0.410311124491
1140 1 20.0274490483 5.73258136002 2.15788767856
1141 1 21.7681019636 7.14937701926 1.14309524546
694 1 24.5045085768 4.29019923598 1.87694176737
1171 1 22.7662560569 5.72630217218 2.89074854437
1172 1 24.505020664 7.1454003166 1.87603475654
1173 1 23.5017804981 5.7163146921 0.131601560271
1203 1 25.5146782614 5.71672929065 3.61683972336
726 1 27.2479050179 4.28438268392 2.60458202974
1204 1 27.2493935613 7.14103828948 2.60300680544
1205 1 26.2384649819 5.71365963243 0.86347060113
1237 1 28.9797845325 5.71219961371 1.59127650538
758 1 29.9900285667 4.28142800388 3.33058402827
760 1 30.7082533128 4.28356094759 0.58256168906
1236 1 29.9951822758 7.13732930384 3.32723825579
1238 1 30.7144328926 7.13983813254 0.576718548688
1269 1 31.726350679 5.70939097514 2.31455528301
792 1 33.4548001784 4.27772042204 1.30524359076
823 1 36.2024319058 4.26152859397 2.03566156868
1270 1 33.4714337647 7.13285923788 1.29702245715
1300 1 34.4707226107 5.70068715659 3.03750684783
1301 1 36.2156801607 7.13145341906 2.02539856296
1302 1 35.2116431776 5.69474435524 0.290810377198
854 1 38.8818315533 4.27713469817 2.81177569195
1332 1 38.965713239 7.12895552964 2.80026801043
1333 1 37.9452241692 5.69386604698 1.03871067194
856 1 39.6260065748 4.20596781407 0.179649887339
1334 1 39.6936605301 7.08932127094 0.022095971412
1396 1 42.3813083009 4.08437842532 0.868649639071
1365 1 40.6822444851 5.63435946681 1.8206389387
886 1 41.8110167027 4.18108647965 3.44498935283
1364 1 41.6598270711 7.10508412988 3.54194123688
1366 1 42.3104068865 6.99167439167 0.773794031368
6217 1 43.5406109792 5.55528376672 2.4716325262
6302 2 44.8058742019 7.2669387628 1.32725568987
5824 2 47.1905553065 4.47559777983 3.24448169545
5739 1 48.078398475 6.21198806931 2.18730118791
5377 1 49.7053990524 4.27585588555 3.20572390945
5855 1 49.9433096085 7.14338858318 3.23302289778
5889 1 50.7432522431 5.66334270048 1.45714763479
5857 1 49.2864350956 7.43451431806 0.491102942629
5410 1 52.4602378638 4.21798966628 2.43974564426
5442 1 55.2671077097 4.23538514666 1.73014313147
5888 1 52.5508591223 7.0691835575 2.47664661598
5920 1 55.2788469632 7.07124268405 1.74626475644
5921 1 53.5271017946 5.65253647948 0.720973395422
5919 1 54.2466602869 5.63177694556 3.47813771868
5475 1 58.0152512148 4.23900764344 1.0183970165
5952 1 57.0017866439 5.65370592388 2.75795442671
5953 1 58.0084247668 7.09961739166 1.0134846607
5506 1 61.4435144819 4.23494343064 3.05600911594
5508 1 60.7272000155 4.24124862926 0.294569968684
5984 1 61.4384943821 7.10133783052 3.0561422265
5985 1 59.7236133149 5.66574649799 2.04143860679
5986 1 60.7114752527 7.10814435291 0.294357788752
6018 1 62.4378846746 5.67625685384 1.31077544082
5539 1 64.1652782397 4.25234659519 2.32677862829
6017 1 64.158500395 7.10517342926 2.32939516752
6050 1 65.1581358158 5.6839284023 0.581314141684
6048 1 65.8845797469 5.6815544507 3.35235532455
5571 1 66.8841651079 4.25964387055 1.60396790285
5604 1 69.6108156384 4.26924028648 0.879872447651
6049 1 66.8814523932 7.11012456373 1.60572355587
6081 1 68.6094951886 5.68712805517 2.6290339723
6082 1 69.6108269832 7.11194633105 0.881333624372
5635 1 73.0587045257 4.27362639261 2.93251991195
6113 1 73.066144102 7.1191010754 2.93418068246
6114 1 71.339877414 5.69441339769 1.90329212069
5476 1 72.3295681379 4.26968734838 0.169193007871
5954 1 72.3361135398 7.12183203897 0.169570006919
5602 1 70.3348166542 4.26869839623 3.65652378907
6080 1 70.3343843571 7.1119238053 3.6570035346
5667 1 75.7778336943 4.27616654936 2.2195436627
6145 1 75.7929249744 7.12645744048 2.21591531998
6146 1 74.0616103902 5.70067480007 1.19068164818
6176 1 76.7790475365 5.70176094448 0.475760813861
6174 1 77.5128336619 5.70201104382 3.25882053145
5697 1 78.5023840417 4.27864513837 1.51323599242
6175 1 78.52344867 7.12926731053 1.51205762248
6196 1 80.2458622688 5.70265035131 2.55672433551
5719 1 81.208353386 4.2656855596 0.798619155099
6197 1 81.2468627638 7.12669987849 0.802598671519
5730 1 84.6370733585 4.20560201804 2.90898854132
6208 1 84.6925728608 7.0847957723 2.90189731507
6209 1 82.942920848 5.67473347746 1.85319851526
6195 1 81.9943481499 7.12889075548 3.59733223288
5717 1 81.958444717 4.25174721806 3.59842019723
5605 1 83.8993901209 4.2463430436 0.0737348175009
6083 1 83.9287984908 7.06768221099 0.0901461724768
5735 1 87.3232311752 4.1282797737 2.12353287047
6213 1 87.3549479891 6.96721766751 2.22577162792
6214 1 85.5867629006 5.58094248109 1.19455215672
959 1 88.4172336584 5.60253936232 0.352356050412
1437 2 88.1630243283 8.04463971636 0.261587494212
1436 1 3.04260772387 8.63014750719 0.718402968593
1925 1 2.87819983646 11.4092205763 0.869441196908
1923 1 2.1854911042 11.6736324194 3.49004174821
1445 1 1.75478731285 9.34969888545 2.76265242851
1915 1 0.244813742483 11.3028225356 2.46103189601
1446 1 4.02369743762 10.0308533809 2.47828872918
1463 1 6.62066290729 10.0648352191 3.03471794738
1464 1 5.63314080273 8.58720288477 1.27340520511
1942 1 5.56966682052 11.4857421682 1.28545194953
1465 1 7.33073270609 10.024559975 0.263601948346
1490 1 8.3608606812 8.60160697297 2.00610313784
1491 1 10.0869200383 10.0197051887 1.00288553024
1968 1 8.33363736229 11.4651788418 2.01484037421
1999 1 11.0931631369 11.4435339898 2.74852875507
1521 1 11.119036888 8.58857641137 2.75653448596
1522 1 12.8377276566 10.0139794995 1.73150788467
1553 1 13.8554888713 8.5850451394 3.47394551053
1555 1 14.5779681936 8.59817572549 0.708709010297
2031 1 13.854334498 11.4241051387 3.47605481165
2033 1 14.5746923173 11.4323380805 0.715478818159
1554 1 15.593276083 10.0052444516 2.46231213306
1585 2 18.3404291316 10.0020759589 3.04442452965
1586 1 17.3001727546 8.5764979177 1.41312076312
2064 1 17.2999696451 11.4399661979 1.41846222439
1587 1 19.0406738126 10.0068347495 0.410638336135
1618 1 20.0499532884 8.56741200564 2.14804544722
1619 1 21.7721112582 10.000820342 1.14217244053
2096 1 20.0540274734 11.4352999185 2.15010820159
1649 1 22.7677993514 8.57707464009 2.88965339833
1650 1 24.5095916265 9.99881782763 1.87685635665
2127 1 22.7704643061 11.419646138 2.89223263432
2129 1 23.5078765504 11.4270028109 0.131728074525
1651 1 23.5048393393 8.5724091036 0.130283725089
1681 1 25.5181045697 8.56968535384 3.61655944241
2159 1 25.5229082498 11.4233290402 3.62111164474
1682 1 27.2533762858 9.99546773406 2.60384413007
1683 1 26.2408882258 8.56998391326 0.86215942135
1715 1 28.9839556671 8.56739627953 1.58863515195
2161 1 26.2456685181 11.4260461833 0.865463303398
2193 1 28.9883241183 11.4219298146 1.59148931862
1714 1 29.9995458757 9.99012851883 3.32685002079
1716 1 30.7201863804 9.99182833443 0.572985321625
1747 1 31.7338646551 8.56241651764 2.30971790897
2225 1 31.7344549271 11.4168352291 2.31121968733
1748 1 33.4733903747 9.98757958296 1.29244036508
1778 1 34.4800685132 8.55967341464 3.0322629735
1779 1 36.2236072964 9.98177942581 2.01487071941
2256 1 34.480828592 11.4129524412 3.03167767386
2258 1 35.2138409597 11.4128518778 0.275373945367
1780 1 35.2167552989 8.55582684212 0.279036377596
1810 1 38.9661966855 9.97079150901 2.78397864001
1811 1 37.9737802228 8.55325479877 1.0195649758
2289 1 37.9739436409 11.4093895405 1.00542999373
1843 1 40.6871237443 8.52895051277 1.78218472975
2321 1 40.6829239446 11.4302397297 1.75132597459
1844 1 42.2616633187 9.98292348129 0.666447216098
2352 1 43.4117250138 11.560725698 2.24654332151
1842 1 41.6449739194 9.98699210544 3.48698912799
1874 1 43.2903426851 8.44895051662 2.5143806507
5856 2 46.9437284955 10.0148638998 1.39195947023
6695 1 44.7877935005 9.8313404112 1.34591781108
6215 1 46.1462731614 10.852047994 3.35142870338
6812 1 48.2231302074 11.5942066991 2.26158365011
6334 1 48.096840798 8.63445591538 2.67100191707
6333 1 50.0072715355 10.0199177462 3.21313323503
6335 1 49.1471993248 9.9413037582 0.547162441736
6367 1 50.9389993121 8.60107863726 1.52272499601
6845 1 50.8877337261 11.4074562423 1.40422399125
6366 1 52.6298519211 9.98584359393 2.4765577537
6398 1 55.2949606344 9.9602813335 1.74698053918
6399 1 53.5947057623 8.50991528209 0.73761001644
6877 1 53.6051383083 11.4156008762 0.714283862265
6875 1 54.3070209707 11.4209991761 3.48657994608
6397 1 54.2864712836 8.50969431213 3.48899149734
6430 1 56.9983095179 8.52020093917 2.76033712823
6431 1 57.9930359591 9.96204952047 1.018101034
6908 1 57.0044633191 11.4055797287 2.76109976251
6749 1 56.2766803664 11.4041708878 0.00566165690496
6462 1 61.4374771185 9.96313276835 3.05612865813
6463 1 59.716360404 8.53405164259 2.03935807924
6464 1 60.7094816485 9.96550068026 0.293112556702
6496 1 62.4321503287 8.53373267682 1.31303679898
6941 1 59.7247475597 11.4032951441 2.03521374084
6974 1 62.424725352 11.3997894733 1.31546626218
6495 1 64.152409265 9.96216027304 2.33004239161
6528 1 65.1524060364 8.53568963968 0.585884672595
7006 1 65.1479671817 11.390513442 0.589880733647
6526 1 65.8800676732 8.53181214543 3.35146068081
7004 1 65.8741404311 11.3893662027 3.3450772588
6527 1 66.8771800663 9.95958324877 1.60652198689
6559 1 68.6073669151 8.53400219857 2.6281788206
6560 1 69.6076768144 9.9617975873 0.881913104676
7037 1 68.5995866234 11.3836929277 2.62705700603
6591 1 73.062581661 9.95616869433 2.93755306343
6592 1 71.3371704859 8.53489269233 1.90606248095
7070 1 71.3318368961 11.3807356112 1.90909711738
6432 1 72.3402464253 9.96063752685 0.161487295573
6558 1 70.3287592474 9.95436715407 3.65709181293
6623 1 75.7971613145 9.96195933309 2.21763105662
6624 1 74.0674148839 8.53829159261 1.18285668843
6654 1 76.8091002147 8.55331075686 0.459273402366
7102 1 74.0656639173 11.3803876112 1.18985082374
7132 1 76.814831402 11.3738811325 0.462540240264
6652 1 77.5203661397 8.54768354714 3.26392585518
7130 1 77.5255218983 11.3775218584 3.25793194011
6653 1 78.540844836 9.96628181396 1.50358176456
6674 1 80.2675772164 8.55139358155 2.55398083255
7152 1 80.2835145614 11.3873020109 2.55330173082
6675 1 81.2695552578 9.97321546753 0.798460462928
6686 1 84.8380831401 9.99063857323 2.84198247475
6687 1 83.0066274313 8.54986773121 1.84324631875
7165 1 83.0536069149 11.396193213 1.83882566845
6673 1 82.026429777 9.97769443939 3.57896703031
6561 1 84.0221067777 9.96680497289 0.10163327996
6691 1 87.6468280168 9.44158566258 2.064697749
6692 1 85.6403957026 8.46564716178 1.13574725961
7170 1 85.8372801884 11.4038479354 1.13290338349
7103 2 87.9862848924 11.3124102979 0.431170272576
1914 1 1.15712660704 13.0953061105 1.15777623464
2392 1 0.876427659309 15.3864969401 1.91379508133
2401 1 2.03807714429 14.2655980931 3.49862803765
2403 1 3.02330780835 14.3442205875 0.647479687434
2402 1 3.74102592103 15.7680461178 2.42586599185
1924 1 3.87399492226 12.9440857024 2.39388920031
1941 1 6.56856078267 12.907210584 3.04739331276
2419 1 6.56466317475 15.7198530362 3.06413225754
2420 1 5.54529084339 14.3520059938 1.28437856457
2421 1 7.3139757023 15.7294252036 0.291841419443
1943 1 7.30667212634 12.8854947696 0.276277141311
1969 1 10.077727503 12.8707108509 1.00750380852
2446 1 8.32177779318 14.3005296286 2.02716711077
2447 1 10.0827131473 15.7075914413 1.01321239238
2477 1 11.0898598839 14.2853650401 2.75239232481
2000 1 12.8338072912 12.8560724874 1.73359419833
2478 1 12.8339159885 15.7021700256 1.73393441903
2509 1 13.8469508033 14.2726583777 3.47529418541
2511 1 14.5729980639 14.274828538 0.718036785615
2032 1 15.5900760034 12.8363661508 2.46939974352
2063 1 18.3097119484 12.8276493294 3.18144443443
2510 1 15.5805915364 15.697783534 2.45878639241
2541 1 18.3142409879 15.6993057315 3.18114239779
2542 1 17.3114365669 14.2710720402 1.44056384636
2065 1 19.0408515849 12.8523034108 0.415764830685
2097 1 21.7740126072 12.8505956656 1.14637745525
2543 1 19.0416236975 15.7044539405 0.419238216252
2574 1 20.0390753679 14.2685284622 2.16559686369
2575 1 21.7753480936 15.7020087579 1.14951060178
2128 1 24.5113952347 12.849740932 1.88128140876
2605 1 22.77339282 14.2683042391 2.89668383255
2606 1 24.512492599 15.6989617821 1.8829633634
2607 1 23.5091289826 14.279099075 0.133911060308
2637 1 25.5241918528 14.2733164319 3.62862214751
2160 1 27.2595844341 12.8523781089 2.61399141957
2638 1 27.2592243242 15.696579538 2.6182359078
2639 1 26.2470990956 14.276143569 0.868150725765
2671 1 28.9909300446 14.2736252263 1.59788051304
2192 1 30.0014494059 12.8459276853 3.33878498834
2194 1 30.720634166 12.8447147952 0.573645264967
2670 1 30.0037338057 15.6925024396 3.35378280712
2672 1 30.7188222652 15.6944691582 0.576414234894
2703 1 31.7310525943 14.2666242839 2.31637361657
2226 1 33.4700948015 12.8402558547 1.29248966732
2257 1 36.2172833032 12.8392426266 2.00912678249
2704 1 33.4608362193 15.6896020805 1.29451342924
2734 1 34.4688111197 14.2650187442 3.03556171713
2735 1 36.2043951454 15.6847007348 2.01149342488
2736 1 35.204260212 14.2671065133 0.270221634709
2288 1 38.9537736546 12.8274159755 2.75342750781
2766 1 38.9463264471 15.6798173256 2.73989691208
2767 1 37.9604353167 14.2676839871 0.988539492342
2799 1 40.6680282336 14.2845756093 1.71910129762
2322 1 42.3008053757 12.9177831328 0.606038781769
2800 1 42.3954874585 15.6741719823 0.644677459665
2830 1 43.4879750766 14.1614466551 2.34629826601
2798 1 41.7702960728 15.631443177 3.46485555994
2320 1 41.6929599843 12.8750585345 3.47694821501
7259 1 45.8326316272 12.5077166358 1.48005800167
6780 1 45.8127541223 14.8648627358 2.04647160724
7290 1 48.1822259543 14.1343741605 2.04330619255
6811 1 49.9434410869 12.777476506 3.19312451643
6813 1 49.1364494775 12.7850383052 0.285213359285
7289 1 49.9372614779 15.7465126372 2.94784544511
7323 1 50.8031477129 14.1136306112 1.37635331623
7291 1 49.0045002168 15.7041663888 0.343455725189
6844 1 52.6008125706 12.8410991206 2.44763547197
6876 1 55.2913984221 12.8564870024 1.74540899703
7322 2 52.5168062583 15.5467064047 2.27780830518
7355 1 53.5788789049 14.2711899109 0.673620786326
7353 1 54.2716721045 14.2874782237 3.47167394277
7354 1 55.2994358891 15.6677846927 1.74729041686
6909 1 58.0116767887 12.8358310323 1.02649604485
7386 1 57.0234935153 14.2774633473 2.75477790676
7387 1 58.0532774785 15.6836254386 1.00210167633
6940 1 61.4426883567 12.835491372 3.05280030219
6942 1 60.7155849679 12.8327476398 0.293455756514
7418 2 61.4801539673 15.6701650164 3.17627888138
7419 1 59.7482033112 14.2652954804 2.03175281613
7420 2 60.6852944317 15.5328557319 0.148206760027
7452 1 62.4241409471 14.2644012751 1.32137143792
6973 1 64.1384773595 12.827082479 2.32372005532
7451 1 64.1359980738 15.6855795078 2.31288804622
7484 1 65.121170193 14.241475507 0.583567486366
7482 1 65.8567059686 14.2348234623 3.3506499998
7005 1 66.8691536203 12.813207886 1.60421927735
7038 1 69.6011498051 12.8069547647 0.883109555986
7483 2 66.8694116741 15.5299047242 1.59849557034
7515 1 68.6081790517 14.2194128313 2.63171600946
7516 1 69.5726208667 15.6598666219 0.887148344044
7069 1 73.049443678 12.8016298145 2.93811032369
7547 1 73.0387341165 15.6524998426 2.93290674045
7548 1 71.3153720862 14.2328717335 1.90725916391
6910 1 72.3352448734 12.8099107702 0.163014845955
7388 1 72.3272087078 15.6500115597 0.162713631461
7514 1 70.2929220363 15.6674892925 3.635878752
7036 1 70.3212103062 12.8009158976 3.65476325824
7101 1 75.7925159378 12.7946315686 2.22173431543
7579 1 75.7795590227 15.6436429516 2.22801831388
7580 1 74.0578008615 14.223185655 1.19477779017
7610 1 76.7935831882 14.2221448126 0.486700542061
7608 1 77.5175273386 14.2166955093 3.2569869014
7131 1 78.5376732718 12.7997468466 1.5147031758
7609 1 78.5235045992 15.6392317517 1.52178857291
7630 1 80.2816537369 14.2189653332 2.55096373207
7631 1 81.2725007955 15.6554993871 0.808657620797
7153 1 81.2920046243 12.8124395016 0.809566631473
7643 1 83.0473029134 14.2444803227 1.83999158556
7164 1 84.8448530007 12.832149252 2.8457809031
7629 1 82.0251853158 15.6234631165 3.59847589998
7151 1 82.055670337 12.8075059444 3.58380915951
7642 1 84.7688256067 15.6729583476 2.89906443051
7517 1 83.9933083668 15.7378308328 0.10480776609
7039 1 84.0679181539 12.8283219072 0.111954881636
7169 1 87.5330982147 13.2077921571 2.06846146644
7647 2 87.2706412366 15.7306957785 2.54274214998
7648 1 85.7329982591 14.3325687305 1.05204407651
2870 2 1.18553868944 18.8558920052 1.76745194006
2881 1 2.55528482624 17.0809143789 0.809491657837
3359 1 2.85625532083 20.0591713022 0.68400099468
2879 1 1.98154540849 17.205424449 3.447386457
3348 1 2.20105543221 20.237109061 3.3318466209
2880 1 3.83008674344 18.5923285466 2.36719865046
2897 1 6.61447097946 18.5505754375 3.0586504158
2898 1 5.52066522266 17.1206073181 1.32118140199
3376 1 5.65373904151 19.9618474313 1.3078069787
2899 1 7.36200206127 18.5434936733 0.312123293025
2924 1 8.33841899102 17.1230302408 2.04306657302
2925 1 10.0979985265 18.5509334192 1.01946267516
3402 1 8.37551726903 19.9817048885 2.04389853521
3433 1 11.105938237 19.9782585521 2.7565461066
2955 1 11.0926147125 17.125164007 2.75776738873
2956 1 12.8372323934 18.5516548587 1.7339511734
2987 1 13.8448310711 17.1235823327 3.47440961334
2989 1 14.5718072241 17.1276305457 0.71320747744
3465 1 13.8493799827 19.9769693723 3.47290899726
3467 1 14.5749228516 19.9828130608 0.712308270924
2988 1 15.5791743844 18.553296358 2.45479361136
3019 1 18.3156098779 18.556773219 3.17939296407
3020 1 17.310182024 17.1290975981 1.43654494479
3498 1 17.3100317839 19.9854999554 1.43541825055
3021 1 19.0419815707 18.5598281367 0.418101156207
3052 1 20.0453304992 17.1293392601 2.16333935328
3053 1 21.7778308062 18.5589223644 1.14797111265
3530 1 20.0452597 19.9869594763 2.1619383932
3083 1 22.7801200801 17.1258256966 2.89391442754
3084 1 24.5142939501 18.5528294374 1.88227623966
3561 1 22.7817590912 19.9844900311 2.89168620527
3085 1 23.5107837353 17.1321362565 0.1348432011
3563 1 23.5111221893 19.9879971611 0.135006407942
3593 1 25.5217375031 19.9780889264 3.6241108809
3115 1 25.5243141988 17.1204248889 3.62912520671
3116 1 27.2560470022 18.5429261919 2.61885634032
3117 1 26.2472908539 17.1258578198 0.869633926699
3149 1 28.9883059507 17.1185850018 1.60118111789
3595 1 26.2453192316 19.9796057811 0.87144846755
3627 1 28.9805623774 19.9715912518 1.60317201645
3148 1 29.994429713 18.5399557944 3.34736788641
3150 1 30.7131203879 18.5465887753 0.581611092563
3181 1 31.7254064009 17.1148089452 2.32108969982
3659 1 31.7209410008 19.9657051877 2.32738745227
3182 1 33.4526532178 18.5403067098 1.30032734139
3212 1 34.4603748269 17.1065552878 3.04054289774
3213 1 36.1919157097 18.5303826397 2.01718493349
3690 1 34.4565657718 19.9534221126 3.04893340706
3214 1 35.1898464999 17.1167234165 0.273608781525
3692 1 35.177555809 19.9694339508 0.280001692736
3244 1 38.9611246214 18.5275552694 2.73465970272
3245 1 37.9412102266 17.1073171481 0.996832605023
3723 1 37.92686323 19.9465053249 1.01082003313
3277 1 40.6945549534 17.0811955032 1.74048201189
3755 1 40.7148101877 19.9798601779 1.73468590336
3278 1 42.351967949 18.5151602622 0.728237728792
3276 1 41.7317339144 18.4793913401 3.50395159998
3786 1 43.3688350167 19.9615740423 2.45490514191
3308 1 43.3679783717 17.0207963617 2.41396632414
7737 2 45.5610411065 17.1067872196 2.29051834517
7735 1 45.8431457804 19.0169244238 1.37791575588
7768 1 47.8769168096 17.118182547 2.17074528789
8246 1 47.8557624069 20.3008355413 2.10471551359
7651 1 46.7463666593 16.8611121606 0.0721113491298
7767 1 49.4732112235 18.6388954941 2.99313000415
7801 2 50.1097623199 17.5080979916 1.02354200819
8279 1 50.7234340799 19.916274147 1.31939926781
7769 1 48.3143850442 18.7322097117 0.0361155181709
7800 2 52.7329656656 18.6932683498 2.39940433658
7832 1 55.3013282507 18.5297177124 1.74808868387
7833 1 53.676313689 17.0817392482 0.722571127179
8311 1 53.5981737429 19.9890313914 0.680592947143
7831 1 54.237500613 17.0677797445 3.43982077661
8309 1 54.3104126761 19.9916724104 3.45893224446
7864 1 57.0222766018 17.0952724129 2.73111490489
7865 1 58.0543774691 18.5220878236 1.0063873177
8342 1 57.0151869097 19.9607001734 2.73342907931
7705 1 56.3113446743 17.1051170829 0.00525233324605
7896 1 61.4471606093 18.5329952639 3.02234159486
7897 1 59.7886088204 17.0803911109 1.98068301696
7898 2 60.7215021973 18.6643354342 0.279840758802
7930 1 62.3866416444 17.0762957394 1.29725596527
8375 1 59.7362287446 19.9803259654 2.01911363413
8408 1 62.4517230897 19.968365957 1.29236664747
7929 1 64.1404214028 18.5054803853 2.29249181331
7962 1 65.1511951211 17.0883465465 0.595821902515
8440 1 65.1129553967 19.964768919 0.557513465461
7960 1 65.8825981578 17.0942240365 3.29709037814
8438 1 65.8540840956 19.9597346189 3.33643382085
7961 2 66.8593388536 18.6563591115 1.58755184673
7993 1 68.5557185789 17.0891400681 2.59999016799
7994 1 69.5681771398 18.5078950727 0.882129404363
8471 1 68.6006620626 19.9580161613 2.62000052526
8025 1 73.0348369576 18.5020696852 2.93000879524
8026 1 71.3006775552 17.0800695459 1.89806632586
8504 1 71.3080346807 19.9322914651 1.90083001467
7866 1 72.3188210881 18.501897376 0.163430457482
7992 1 70.2896570981 18.5023206499 3.62986993107
8057 1 75.7716538152 18.4953808808 2.22561978892
8058 1 74.0477583059 17.0734978499 1.19440398271
8088 1 76.7802555609 17.0659934776 0.487488110791
8536 1 74.0430789215 19.9293315847 1.19271165845
8566 1 76.7679312588 19.9224759538 0.484969589601
8086 1 77.5057917042 17.0608483276 3.25967208913
8564 1 77.4928292725 19.9209709387 3.2545448046
8087 1 78.5024440932 18.485410769 1.52279762679
8108 1 80.2529448645 17.0517384263 2.55808717645
8586 1 80.2192121023 19.9109377756 2.55578331642
8109 1 81.2212373447 18.4802341196 0.81681596514
8121 1 82.9769772194 17.063209329 1.88781939899
8599 1 82.8689109122 19.9313562645 1.89975260766
8107 1 81.9584083157 18.4668696877 3.61375349839
7995 2 83.866084836 18.5356958203 0.250631151238
8120 1 84.6735529516 18.5339734203 2.94250641452
2871 1 88.2882905735 17.0795905935 0.548334630643
8125 1 87.3707445648 19.0177724204 1.72720066158
8126 1 85.7205974536 17.1879627867 1.19862283813
8604 1 85.4185773315 20.0409413986 1.2176797676
3837 1 2.88391706032 22.9364811793 0.606741519231
3826 2 0.556708568175 23.1655940782 1.4853214267
8603 1 0.151124648288 20.944235211 1.73798276826
3835 2 2.75072001793 22.7856331075 3.42135126141
3358 1 4.07255955009 21.4389902266 2.28155144625
3375 1 6.65854182167 21.4260696037 3.04766469358
3836 1 4.28287032924 24.2496163583 2.48140263348
3853 1 6.67947452148 24.3040923661 3.05400916975
3854 1 5.76286932021 22.8763546197 1.25048677434
3377 1 7.4256956137 21.4232777969 0.301709949767
3855 1 7.42409468551 24.3505665916 0.293532856126
3403 1 10.1194866813 21.420848713 1.01890304591
3880 1 8.40038928329 22.8667226539 2.03528530578
3881 1 10.1410868242 24.2969943427 1.018417518
3911 1 11.1298039449 22.8441395229 2.75324218506
3434 1 12.8484309891 21.4101878305 1.73399586693
3912 1 12.857338697 24.2831742063 1.73445080665
3943 1 13.8548222742 22.8421657889 3.47220323621
3945 1 14.5794550001 22.84593836 0.712696190271
3466 1 15.5803821477 21.4119549607 2.4540339184
3497 1 18.3139661694 21.4146029779 3.17829772247
3944 1 15.5797527204 24.2785546849 2.45305164748
3975 1 18.3095250311 24.2771299339 3.17660244276
3976 1 17.3081055128 22.8461619784 1.43471114577
3499 1 19.0400461669 21.4173120362 0.417627663209
3531 1 21.7756612255 21.4166202023 1.14733707812
3977 1 19.0360520599 24.2776720851 0.416896904926
4008 1 20.0414877002 22.8462698738 2.16124154665
4009 1 21.7699263506 24.276400447 1.14690074422
3562 1 24.5122037197 21.4122405977 1.88046490207
4039 1 22.7781656905 22.8443654137 2.89054680428
4040 1 24.5083202861 24.2728505717 1.87927327685
4041 1 23.506891962 22.8456221393 0.135211857307
4071 1 25.5178276685 22.8409667272 3.62059192396
3594 1 27.2498041277 21.407002317 2.61204045946
4072 1 27.2506983995 24.2702632171 2.61006851734