ITEM: TIMESTEP
2000
ITEM: NUMBER OF ATOMS
9560
ITEM: BOX BOUNDS pp pp pp
0.0 88.6430375159
0.0 28.55
0.0 44.3215187579
ITEM: ATOMS id type x y z
2 1 0.954255604036 1.19514542026 1.8213883279
491 2 2.16638288028 2.71946502276 0.573704618382
489 1 2.39670585355 2.82832291288 3.18506093506
13 1 3.27536826835 0.477863037535 0.486280422534
1 1 0.033611734395 2.78398831567 3.48256053352
12 2 4.36388542074 1.45007674868 2.40733934277
29 1 6.76738347767 1.43992261041 3.00828227235
508 1 5.89029760642 2.83606912582 1.17387936807
490 1 4.03148428634 3.99271767697 1.89298278958
31 1 7.5201795238 1.42486741653 0.205028249468
57 1 10.1490486418 1.47715821453 0.960656508975
534 1 8.39524341249 2.91352677394 1.95181206272
56 1 8.44721013437 0.0184290645236 1.97970056409
565 1 11.1136091075 2.92215650792 2.72091524902
88 1 12.8470907478 1.47458735875 1.69237943992
597 1 13.8276302771 2.91818733663 3.44092384057
599 1 14.5755937664 2.895965786 0.669394472497
121 1 14.5774973389 0.0377712245056 0.667557243892
119 1 13.8386770281 0.0422710622628 3.43098876892
87 1 11.11868641 0.0395883014876 2.71146803122
120 1 15.5670992532 1.46997666249 2.41081032115
151 1 18.3110259918 1.45963209967 3.1264525492
630 1 17.3029374726 2.88922749169 1.38691825967
152 1 17.3021980359 0.0341341955135 1.38778892277
153 1 19.0311104463 1.4533809095 0.358807170255
185 1 21.7755524555 1.45349681378 1.08751464323
662 1 20.0400914065 2.883264608 2.10391532481
184 1 20.0426403799 0.0282600752522 2.10461438484
216 1 24.5143550064 1.45185371888 1.81378477793
693 1 22.7763340768 2.88274995336 2.83201768283
695 1 23.5074267228 2.88059113459 0.0717228353982
725 1 25.5119182294 2.88190901293 3.55907430745
217 1 23.5137909591 0.0252350420945 0.0696309690851
215 1 22.7827102205 0.0251832908421 2.83070614065
247 1 25.5190640574 0.0239488282512 3.55664120466
248 1 27.2483981245 1.45318393006 2.5402213303
727 1 26.2418427115 2.88271991298 0.799607090597
759 1 28.976859065 2.88586370731 1.52896665933
281 1 28.9876131872 0.0261430669025 1.51686435531
249 1 26.25576469 0.0221042228924 0.792579857726
280 1 29.978032446 1.45573115264 3.27027578307
282 1 30.713439144 1.46272193576 0.511438869121
791 1 31.7060276377 2.89041384054 2.26663579302
313 1 31.705715772 0.0230172654829 2.24799951998
314 1 33.4272389943 1.45557185071 1.26301440829
345 1 36.1889427473 1.4528777165 2.01192021349
822 1 34.4531964081 2.89261567336 3.00717844638
824 1 35.1232126098 2.89010739877 0.301198154399
346 1 35.1517887989 0.0304058879474 0.238174552237
344 1 34.434995638 0.0267157072429 2.98883294123
376 1 38.9420456303 1.40411714962 2.80297622966
855 1 37.9719443012 2.85244200602 1.11453328442
378 1 39.7691108488 1.4566481145 0.0773865902459
377 1 37.9705573799 0.041475406018 1.00423085652
887 2 40.6214188063 2.77816122048 2.00185858843
410 1 42.503344117 1.4145848356 0.863458681811
918 1 43.6483855222 2.75312567258 2.55913905777
408 1 41.9887913413 1.20840377838 3.65647901681
440 1 44.2087349203 0.10177388428 2.39080029719
409 1 40.7027547616 0.0590713351195 1.79215399755
5378 2 46.0842323086 0.693700513829 0.497844711295
4866 2 45.6732367511 1.92252977544 3.19080817833
5344 2 48.2255843538 3.19871714546 2.52173785479
4899 1 49.7953889534 1.4590673497 3.23542900604
5411 1 50.7442701847 2.96588022669 1.52045605758
4901 2 49.4746860063 1.57055177774 0.354250330108
4932 1 52.4969528795 1.43067828297 2.49953437954
4964 1 55.2476113499 1.43795697516 1.75357836359
5443 1 53.477949226 2.89694517526 0.737697884854
5441 1 54.2562883602 2.85254788595 3.50296922637
4963 1 54.2848576095 0.00935896412343 3.52195209463
4997 1 57.9719619572 1.42318339038 1.0359237463
5474 1 56.9868705116 2.85529592138 2.76554695982
5028 1 61.4474229779 1.43096656874 3.07478092242
5030 1 60.6913217802 1.41033341332 0.32344696414
5507 1 59.7029948614 2.84666531766 2.05250931349
5540 1 62.4259863822 2.84141713016 1.34153283451
5061 1 64.1574781011 1.40732033504 2.38030754028
5572 1 65.1539184939 2.8301529062 0.634322319703
5570 1 65.8858915122 2.8261472675 3.39410812169
5093 1 66.8885437374 1.40961557774 1.66378922476
5126 1 69.6118800183 1.40773033636 0.945719572739
5603 1 68.6201336992 2.8259117292 2.67779003042
5157 1 73.0724955407 1.41097930613 2.98913885938
5636 1 71.3450030569 2.84184274183 1.9710873985
4998 1 72.3352152551 1.40830083199 0.227139666534
5189 1 75.7843553516 1.40709719545 2.271042051
5668 1 74.0655522366 2.84045060217 1.24764297082
5698 1 76.774047846 2.83796305327 0.533075480608
5696 1 77.5150450438 2.84246967267 3.29088179927
5219 1 78.5010251375 1.39871271512 1.55810958872
5718 1 80.2386074008 2.83200056244 2.5843515879
5241 1 81.2046764532 1.38612177354 0.84935935093
5731 1 82.952488077 2.79417104842 1.87302352763
5239 1 81.963471943 1.38504668747 3.61125528722
5127 1 83.884998875 1.34628354663 0.0938061027905
5252 1 84.672941418 1.31000762954 2.91769214634
5257 1 87.1631885668 1.27922840709 2.27711177777
5736 1 85.5716263137 2.75416168547 1.17701103859
481 1 88.1585073618 2.66110791219 0.600854161588
480 1 0.98248589294 4.29434112443 1.68171830858
958 1 1.22936629168 7.09968974478 1.93704487578
969 1 2.70907376631 5.32481189477 0.228452011664
967 2 2.67342748532 5.46851613469 2.77393759522
968 1 3.73285385273 7.29288949293 1.91176583078
507 1 6.63524424786 4.35572662352 2.93301383594
985 1 6.54323082166 7.173672546 2.92205762212
986 1 5.6488335497 5.73979255252 1.16324202863
987 1 7.3659856013 7.19487648469 0.206938719437
509 1 7.41807065521 4.34199532397 0.157901056405
535 1 10.124640405 4.33680404553 0.954655080483
1012 1 8.35848107138 5.7639694742 1.94314781183
1013 1 10.1059095633 7.18050096588 0.961435353569
1011 1 9.32341069789 7.18729678535 3.68279877684
533 1 9.34399521972 4.32374247986 3.689725794
1043 1 11.0943666475 5.75665249692 2.71887013589
566 1 12.8415209958 4.33951210067 1.70115489324
1044 1 12.8359086609 7.17024791157 1.70420617221
1075 1 13.8378004041 5.75776504735 3.44810290136
1077 1 14.5789061055 5.75217622256 0.672100836293
598 1 15.5726018269 4.32918446544 2.41579489534
629 1 18.3110945495 4.31842433201 3.12534934102
1076 1 15.5831525938 7.18696173099 2.42694979049
1107 1 18.3095218972 7.19104703191 3.12586633445
1108 1 17.3067192844 5.74872338765 1.38748610137
631 1 19.0328446976 4.30758799554 0.358210639122
663 1 21.7699447483 4.31026162688 1.08795260216
1109 1 19.0364848797 7.16766721609 0.359700242252
1140 1 20.0347950534 5.74583258226 2.10523827388
1141 1 21.7700167128 7.16583170442 1.08594911436
694 1 24.5047241148 4.3113025664 1.81717377266
1171 1 22.7665923609 5.7438353248 2.83492271202
1172 1 24.5025456627 7.16548367575 1.81685550901
1173 1 23.5033815753 5.73631908603 0.0709072814314
1203 1 25.5068476941 5.73890896525 3.56122785038
726 1 27.2413419681 4.31122225761 2.54482866991
1204 1 27.2397712803 7.16383726412 2.54482246728
1205 1 26.2370262817 5.73714256202 0.800214100418
1237 1 28.973084269 5.73863485078 1.52996231509
758 1 29.9765868698 4.31580549131 3.27600121539
760 1 30.7089833303 4.31510706937 0.517968252219
1236 1 29.9767689714 7.16659548117 3.27552235383
1238 1 30.7086497495 7.15848904377 0.512207369846
1269 1 31.7083819123 5.74724124903 2.26786719201
792 1 33.4327789799 4.32761359748 1.27427233958
823 1 36.208100469 4.31750055587 2.02619574413
1270 1 33.4431229992 7.16722669602 1.25265727189
1300 1 34.4742950727 5.75805668136 3.00908959089
1301 1 36.2129660108 7.15405546251 1.97121000879
1302 1 35.1578323493 5.74759901908 0.257958463992
854 1 38.9433237929 4.30395525968 2.76718591442
1332 1 39.0267560655 7.17254115662 2.65795748412
1333 1 37.9651184062 5.71817717476 1.04065384396
856 1 39.7389124502 4.24464728498 0.116317804395
1396 1 42.5445751885 4.19581191693 0.829040751881
1365 1 40.769738952 5.65822260781 1.78423053884
1364 1 41.9424408743 7.12954983042 3.25529935082
1366 1 42.3975817719 7.12285557623 0.785783820203
6217 1 43.6907000238 5.26954177547 2.65392386624
886 1 41.7809060825 4.15116501955 3.45445534521
5346 2 45.120220819 4.14837230437 0.929219799377
6302 2 44.3324086336 7.24474229966 1.95590955631
5379 1 47.0717281083 5.82737688129 0.0868945912751
5739 1 48.0860104862 5.71814113873 2.43372638606
5377 1 49.8928839896 4.32215537257 3.41502729094
5855 1 49.7899051552 7.09144658626 3.33298963087
5889 1 50.6955273402 5.66322776664 1.48315248842
5857 1 49.0509415867 7.16616337816 0.605956189907
5410 1 52.503886299 4.29589627292 2.52171024968
5442 1 55.241972089 4.27888841649 1.73821400434
5888 1 52.5036732038 7.085797312 2.51097488689
5920 1 55.259124825 7.09145354541 1.75482736848
5921 1 53.5039879468 5.69714089331 0.734324911738
5919 1 54.2610759731 5.69023369653 3.51880473971
5475 1 57.9683658721 4.27934527019 0.997290752556
5952 1 56.9853969524 5.68244422572 2.7715037666
5953 1 57.9565252528 7.09891057403 1.02095706727
5506 1 61.4389062352 4.26582193068 3.08210045657
5508 1 60.6829586563 4.27041563555 0.301718955549
5984 1 61.4492372155 7.10039678253 3.08096425961
5985 1 59.7047668529 5.69048322503 2.04916245415
5986 1 60.7038643978 7.10298684817 0.309774992059
6018 1 62.4277013707 5.67226335106 1.34505244804
5539 1 64.1681627036 4.26075534597 2.36910496389
6017 1 64.1711932643 7.08799069245 2.3732293321
6050 1 65.1646854088 5.66501239425 0.635791335118
6048 1 65.8899656895 5.67665387782 3.39784077311
5571 1 66.8831899241 4.25201940345 1.65720381971
5604 1 69.6098745573 4.25557512161 0.950622108689
6049 1 66.8816951829 7.08524229542 1.66221803544
6081 1 68.6138430895 5.67676551583 2.68434766385
6082 1 69.6107009798 7.08894322953 0.950467726601
5635 1 73.0736612383 4.25786082529 2.99546307957
6113 1 73.0694115422 7.10335314738 2.99860652722
6114 1 71.3448809071 5.67447123717 1.97300671349
5476 1 72.3330782095 4.25394580153 0.223703638805
5954 1 72.3320321036 7.10160754067 0.225505642944
5667 1 75.8017650895 4.26804198195 2.26757869694
6145 1 75.8056989463 7.11260251978 2.2671859824
6146 2 74.0678021029 5.68528731754 1.24553945282
6176 1 76.7961710065 5.69767285602 0.51078150035
6174 1 77.5259663196 5.69824456201 3.28576709525
5697 1 78.5134960578 4.26860722548 1.54883572644
6175 1 78.5336085573 7.10993127093 1.53080556823
6196 1 80.2626932159 5.69314966708 2.57331353661
5719 1 81.2254202373 4.24755093341 0.832814858023
6197 1 81.253767869 7.102142167 0.80843046891
5730 1 84.6638776603 4.22648911722 2.93636357224
6208 1 84.7341322509 7.0631989217 2.86693291201
6209 1 82.9695681822 5.66655450824 1.8454024143
6195 1 82.0247010235 7.1262196979 3.58172615662
5717 1 81.9855466558 4.2608702065 3.60827920634
5605 1 83.8972162567 4.20343442511 0.0917004109425
6083 1 83.9855953157 7.03976552772 0.0547250625556
959 1 88.465733621 5.70432393654 0.13008062786
5735 1 87.2935169306 4.22109016625 2.23977796351
6213 1 87.5345429877 6.6417408446 2.18398635914
6214 1 85.5971059591 5.56555201164 1.16295998392
1437 2 88.2287560973 8.0065857867 0.291919749034
1436 1 2.76480236403 9.1049705579 0.542255395618
1925 1 3.04778232216 11.5629016676 0.468891949206
1923 1 2.12937062321 11.5237870029 3.36087590588
1445 1 1.76548025394 9.06298218703 3.14003498084
1915 1 0.01109305998 11.1293084733 2.24488962821
1446 1 3.89677711331 10.1019165224 2.30534587287
1463 1 6.55842701734 10.0289252466 2.98518605094
1464 1 5.60974782899 8.64372803938 1.21133757863
1942 1 5.61374504459 11.4878303446 1.21363305858
1465 1 7.36111709499 10.039148705 0.207515964897
1490 1 8.33131710764 8.60660918876 1.96621395427
1491 1 10.0939002775 10.0206994537 0.969990984065
1968 1 8.33131287951 11.4499235379 1.97555168934
1999 1 11.0753925604 11.4436149572 2.71419666745
1521 1 11.0904093551 8.58422880906 2.72256523856
1522 1 12.8282135181 10.0168708785 1.69765615159
1553 1 13.8349174561 8.59023981434 3.44491907429
1555 1 14.5737317246 8.59670464258 0.674965149688
2031 1 13.8397142753 11.4277615623 3.4374586937
2033 1 14.5729172396 11.4384830217 0.676955746612
1554 1 15.5851471515 10.0131797264 2.42097694843
1585 2 18.3432449182 10.0161738142 2.99344477175
1586 1 17.2964799863 8.58325373626 1.3695048093
2064 1 17.2967567952 11.4489507106 1.37225912375
1587 1 19.0386305224 10.0175061346 0.359635543696
1618 1 20.0533977781 8.58276000439 2.0933242395
1619 1 21.7725744373 10.01769599 1.08441421704
2096 1 20.0546326855 11.4509955045 2.09579528993
1649 1 22.7658519172 8.59544330692 2.83337799031
1650 1 24.5058071012 10.017392717 1.81635137372
2127 1 22.7681955714 11.4385601813 2.83480899821
2129 1 23.5079939815 11.4448775766 0.0695868637497
1651 1 23.5052379051 8.59104803882 0.0691251645114
1681 1 25.5082709293 8.59058509929 3.56106128126
2159 1 25.5117662593 11.4423034975 3.56221149085
1682 1 27.242119535 10.0150046276 2.54459676585
1683 1 26.2376365711 8.58970418124 0.798999203965
1715 1 28.9733991012 8.58680084838 1.52728823215
2161 1 26.2408651174 11.4438650083 0.799725064473
2193 1 28.9751023369 11.4380588197 1.52814065944
1714 1 29.9792182694 10.0111279199 3.27287054103
1716 1 30.7060929365 10.0073110916 0.510554689081
1747 1 31.7121315391 8.58753940054 2.25824282889
2225 1 31.7163299341 11.4273852893 2.25426542804
1748 1 33.454781354 9.99630100579 1.23464470521
1778 1 34.4777634311 8.58193843455 2.98551992658
1779 1 36.1872975021 9.9906302033 1.91816428239
2256 1 34.4672313546 11.4179833858 2.97720975519
2258 1 35.1754140864 11.4237467327 0.203680684067
1780 1 35.1963792063 8.55518980636 0.207899879421
1810 1 38.9512453526 10.0233666959 2.62245054676
1811 1 37.9488516063 8.57378586091 0.930667940476
2289 1 37.9150455985 11.4445952819 0.911187064347
2287 1 37.1623731046 11.466071106 3.6145879605
1809 1 37.2447481736 8.54808213873 3.66038771539
1843 1 40.7596357563 8.63756455919 1.60840520886
2321 1 40.6668089579 11.4820992092 1.58609529615
1844 1 42.5533758605 10.1567941262 0.561837568677
2352 1 43.4433406904 11.7310912067 2.26919125372
1842 1 41.640188489 10.0996795378 3.26924560481
1874 1 43.6356417496 9.21448374788 2.61222904374
5856 2 46.8787888315 8.44455562654 0.371125373958
6695 1 45.4331230382 10.4534933993 0.953889377733
6812 1 47.9449841512 11.3507895498 2.19532220933
6215 1 45.2870846544 10.7234725575 3.43615593787
6334 1 48.0145023764 8.4724756443 2.42845993774
6333 1 49.7847596962 9.96286354737 3.25084353467
6335 1 49.0576114962 9.87322028769 0.643415270545
6367 1 50.8067319983 8.52554204574 1.57296401379
6845 1 50.7300294625 11.4464468322 1.53966065123
6366 1 52.5148237015 9.9846337744 2.51123487567
6398 1 55.2531416134 9.97925743661 1.79100475606
6399 1 53.5415576673 8.52398012633 0.786609297574
6877 1 53.5354241825 11.4684713893 0.821983669479
6875 1 54.2511557045 11.4253961981 3.51684690798
6397 1 54.251591159 8.53501674802 3.51385516498
6430 1 56.9817341244 8.53339229367 2.78832364731
6431 1 57.9786427714 9.96309896923 1.06318180833
6908 1 56.9893279841 11.4035970219 2.80177924508
6749 1 56.2610033696 11.4151121975 0.0687406391489
6271 1 56.2267522202 8.53830146894 0.0288576622757
6462 1 61.4582350083 9.93578489446 3.0920010934
6463 1 59.7111123569 8.52062494617 2.06203992738
6464 1 60.7258142676 9.94544983592 0.336119590382
6496 1 62.4428393885 8.51870407905 1.35278356526
6941 1 59.7357336322 11.3729158492 2.08052155854
6974 1 62.454746979 11.3688258612 1.36076975285
6495 1 64.1743171031 9.93239930853 2.37379224151
6528 1 65.168565362 8.5167819492 0.639342437037
7006 1 65.1683274042 11.370641106 0.642710920807
6526 1 65.896117086 8.50747482066 3.40577264297
7004 1 65.8989591354 11.3670059849 3.40793431522
6527 1 66.8862823988 9.93622767517 1.66346084184
6559 1 68.6118100408 8.51045542216 2.69345606495
6560 1 69.6081166593 9.94029072272 0.94907823286
7037 1 68.611781951 11.3670158005 2.69468813825
6591 1 73.0680415029 9.94003699037 2.99578282956
6592 1 71.3418855963 8.51190361429 1.97399654147
7070 1 71.3341888141 11.3673209386 1.97689826234
6432 1 72.3360023902 9.94186401746 0.230524917132
6623 1 75.799453903 9.93884155386 2.2660394435
6624 1 74.0674325454 8.51621509201 1.24665507705
6654 1 76.8032341883 8.51183411226 0.506754196698
7102 1 74.0639978051 11.3674554787 1.25322592212
7132 1 76.7964795136 11.3646885682 0.527708914238
6652 1 77.5365969568 8.52962843594 3.28489977201
7130 1 77.5406452251 11.3625791444 3.29165619543
6653 1 78.5410395695 9.94181596129 1.53433997467
6674 1 80.2857192562 8.53253306256 2.55338104293
7152 1 80.2993350004 11.3505957448 2.54373296588
6675 1 81.3026832086 9.92922770169 0.785154214244
6686 1 84.8561867017 9.91541686751 2.79846142122
6687 1 83.0569818807 8.52185784842 1.79262376726
7165 1 83.0888064119 11.3105447707 1.75804639227
6673 1 82.0527193943 9.9368793487 3.55210722836
6691 1 87.7743774358 9.07141127669 2.33655407729
6692 1 85.7786452099 8.4262078819 1.10000033077
7170 1 86.0283428183 11.2188480446 1.08231146087
1914 1 1.26757915069 12.9804191819 1.53121167542
2392 2 1.51118677813 15.6014128739 1.4662772365
2401 1 2.03217768616 14.2758784955 3.37650216175
2403 1 2.95717866363 14.2954760054 0.437431380921
2402 1 3.87818228995 15.7570843995 2.23195728571
1924 1 3.87326697624 12.8963897469 2.28176767701
1941 1 6.58567130689 12.8838439309 2.98616370985
2419 1 6.57054694059 15.7657174101 2.98353098204
2420 1 5.5966663021 14.3365007763 1.23315008914
1943 1 7.35809784005 12.8949398127 0.221013003013
2421 1 7.33646238579 15.7597940632 0.225390290648
1969 1 10.0834109657 12.8789123035 0.969391061198
2446 1 8.32687445163 14.3178846731 1.9769154499
2447 1 10.091761822 15.7277490079 0.966249028853
2477 1 11.0768318266 14.2972913182 2.71240725871
2000 1 12.8280995225 12.8636932685 1.69868745267
2478 1 12.8332592199 15.7153676195 1.69466092577
2509 1 13.8360373652 14.2831750969 3.43336517028
2511 1 14.5748993549 14.2850446864 0.678523957002
2032 1 15.5834617457 12.8447800748 2.42678371187
2063 1 18.3087670343 12.8407464385 3.13037191316
2510 1 15.5785537917 15.7097931556 2.41427364193
2541 1 18.3138719224 15.7136744196 3.12902223369
2542 1 17.310297177 14.2824818998 1.39338699583
2065 1 19.0400055117 12.8646105105 0.364124928653
2097 1 21.7741346027 12.8675381174 1.08833426277
2543 1 19.0429730896 15.7190965414 0.367156928319
2574 1 20.0392164647 14.28435263 2.11133468333
2575 1 21.7759718719 15.7204386423 1.09107278884
2128 1 24.5078512056 12.8687617087 1.81830554873
2605 1 22.7718093817 14.2882492763 2.83765206098
2606 1 24.5108389601 15.7214344225 1.81818334482
2607 1 23.509516228 14.2976763943 0.0714622500465
2637 1 25.5145700922 14.2942182328 3.56360228003
2160 1 27.2464109011 12.8685531813 2.54676580273
2638 1 27.25054277 15.7223204218 2.54668992073
2639 1 26.244254571 14.297371837 0.800907380588
2671 1 28.9796693861 14.2928958451 1.5298119953
2192 1 29.9828795617 12.8595563129 3.27443908629
2194 1 30.7063177922 12.8592839827 0.512194003616
2670 1 29.9860373351 15.717756786 3.27551693669
2672 1 30.7101718837 15.7190566134 0.511834789027
2703 1 31.7112565295 14.280873008 2.25703415087
2226 1 33.4439374434 12.850172058 1.23679668698
2257 1 36.1670033812 12.8701493149 1.92595679122
2704 1 33.4335007368 15.7078154018 1.23986329534
2734 1 34.4433878736 14.2732247132 2.98352700599
2735 1 36.1681724485 15.7049014046 1.96078741194
2736 1 35.1590679234 14.2860610356 0.206161283078
2288 1 38.9091295969 12.8657475469 2.63803481976
2766 1 38.852487104 15.7311043885 2.68347241281
2767 1 37.9054664356 14.2955373056 0.908161827809
2799 1 40.5255206544 14.3525322672 1.61328101017
2322 1 42.2267202779 13.1220426052 0.656063557123
2800 1 42.3121909465 15.8107661052 0.519038465314
2830 1 43.1785268307 14.5828573658 2.44254383473
2798 1 41.3195620746 15.7472443066 3.39145779628
2320 1 41.6575766132 12.9235395776 3.33478674743
7259 2 45.96897107 12.5002225409 2.39756743298
6780 1 45.6472168007 14.7504538703 2.08582899161
6693 1 46.4305688566 12.6306856721 0.159490688335
7290 1 47.9720283598 14.1106586182 2.27643358595
6811 1 49.7393733628 12.7893850555 3.24928821869
6813 1 48.9525328194 12.8027096386 0.426706271408
7289 1 49.7124153139 15.6330647656 3.24259126488
7323 1 50.7108424345 14.2383214044 1.47743790871
7291 1 49.1362173617 15.6894718849 0.392254848338
6844 1 52.4966934915 12.8705918811 2.52482668232
6876 1 55.2627106293 12.8749306317 1.80137388411
7322 2 52.367512283 15.6548498242 2.56660153431
7355 1 53.4835876194 14.2874186742 0.792490111065
7353 1 54.250853754 14.2780217733 3.50880447873
7354 2 55.4190136698 15.6513447014 1.77150170856
6909 1 58.0217081872 12.8111429523 1.07355410507
7386 1 57.0491165753 14.2346881031 2.81674524458
7387 1 58.068421791 15.6711801361 1.08626634853
7227 1 56.3147798879 14.2235480334 0.0572544685443
6940 1 61.4682740294 12.7947236616 3.10434913848
6942 1 60.7359316517 12.8020943554 0.345347643055
7418 2 61.4757207046 15.5178765887 3.11847877998
7419 1 59.7446696291 14.2239213862 2.07480401655
7420 1 60.7430243634 15.6591494938 0.349242889481
7452 1 62.460002755 14.2270796589 1.35564034071
6973 1 64.177047361 12.7988654907 2.384466583
7451 1 64.1437859905 15.6806130479 2.38900380826
7484 1 65.1606560524 14.2451204857 0.656419022061
7482 1 65.8889865982 14.2410317807 3.40479787692
7005 1 66.8882149259 12.8020375526 1.66920990647
7038 1 69.605941523 12.7979346636 0.95048343752
7483 1 66.884789442 15.6677573708 1.67000837
7515 1 68.6092041824 14.2318508955 2.69316642192
7516 1 69.6019966328 15.6593125495 0.951952170811
7069 1 73.0622590338 12.7917035011 3.0034872791
7547 1 73.0614453096 15.6441254979 3.00311550746
7548 1 71.3315295116 14.2221632578 1.97749305334
6910 1 72.3310607269 12.7951489224 0.230277173424
7388 1 72.330430476 15.6451964297 0.230498064009
7101 1 75.7974991943 12.7868988299 2.27890558752
7579 1 75.7951472157 15.6320558813 2.28104144726
7580 1 74.0604754612 14.2148793309 1.25840368832
7610 1 76.7951061472 14.2052742351 0.533995402758
7608 1 77.539337328 14.20157691 3.29559982887
7131 1 78.5402066795 12.7736605112 1.54480930799
7609 1 78.5318754825 15.6221032485 1.54938861728
7630 1 80.2833187696 14.1796716934 2.54642168653
7631 1 81.2600217673 15.6218396958 0.808054111182
7153 1 81.3086083651 12.7586592619 0.791243001631
7643 1 83.0340747361 14.1850030559 1.76858931689
7164 1 84.7632174398 12.7097337663 2.75891116761
7629 1 82.0010037977 15.5840630445 3.55969739704
7151 1 82.054557339 12.7531171133 3.53741543252
7642 1 84.6748160806 15.6550549582 2.79515605855
7517 1 83.9757965958 15.7204718243 0.0467162699709
7039 1 84.0930413989 12.7358359678 0.000507312385434
7169 1 87.408831257 13.1123038677 2.13698666279
7647 2 87.1570906442 15.6339844686 2.02707206056
7648 1 85.6106053191 14.278688614 1.03754643651
2393 1 88.4079501197 14.3920565082 0.31375566334
2870 2 1.41160219275 18.7234713413 1.69051005291
2881 1 2.78654282757 17.2637172897 0.491601952221
3359 1 3.06768367804 20.0206805896 0.482433810023
2879 1 2.04484687997 16.9299798642 3.39164888582
2880 1 3.77915923952 18.6433305935 2.33992964622
2897 1 6.595942245 18.5575594599 2.99503716944
2898 1 5.54051693775 17.2080985029 1.22345324403
3376 1 5.61160246927 19.9487611388 1.22385164346
2899 1 7.36273577484 18.5637015242 0.214236626294
2924 1 8.34364060373 17.1555976107 1.97451893905
2925 1 10.1073214644 18.5669007843 0.960299497617
3402 1 8.36242451338 19.9814852708 1.97619914133
2955 1 11.0874837158 17.1452707719 2.7113988022
3433 1 11.1046019023 19.9867784414 2.70919287267
2956 1 12.8433685098 18.5658640611 1.68915116238
2987 1 13.8406728991 17.1384945327 3.42980487505
2989 1 14.5789110464 17.1405071593 0.670067748715
3465 1 13.8474975884 19.994333461 3.42600028227
3467 1 14.5831176565 19.9988876707 0.662772630961
2988 1 15.5806850296 18.5701917558 2.4069799673
3019 1 18.3174065069 18.5754776417 3.12541886542
3020 1 17.3121323211 17.1444855729 1.38737887953
3498 1 17.3134323683 20.0053522154 1.38253658386
3021 1 19.0451474782 18.5784572854 0.363881543492
3052 1 20.0468993297 17.1479271552 2.10809244795
3053 1 21.7805324219 18.5806116944 1.087966925
3530 1 20.0488667901 20.0090970793 2.10433453068
3083 1 22.7803297389 17.1484475174 2.83325065466
3084 1 24.5162607188 18.5794477001 1.81468299509
3561 1 22.7858736133 20.0094184231 2.82928625759
3085 1 23.5118882581 17.1523843506 0.0716552639928
3563 1 23.5157240954 20.0118639442 0.0694348814536
3593 1 25.5230713401 20.0057569272 3.55660373775
3115 1 25.5185726786 17.148604829 3.56050197177
3116 1 27.2543794356 18.576879939 2.54307267835
3117 1 26.2478204465 17.151344662 0.799675033474
3149 1 28.9841905995 17.1501191837 1.52765340531
3595 1 26.2520370605 20.0095131057 0.796929295428
3627 1 28.9879866077 20.009821003 1.52337411237
3148 1 29.9894501145 18.5749698339 3.27087952111
3150 1 30.7159219814 18.5841647634 0.509107197911
3181 1 31.7149203023 17.1469145828 2.25247904396
3659 1 31.7210762911 20.0152967438 2.2459085084
3182 1 33.4457461972 18.5867090751 1.23503128845
3212 1 34.4303078786 17.1310899852 2.9850427931
3213 1 36.1330900544 18.5656340888 1.97302650086
3690 1 34.4394418557 20.0228790237 2.97209674366
3214 1 35.1488906884 17.1360205648 0.222559990981
3692 1 35.1854319664 20.0384082264 0.219677108596
3244 1 38.9017894912 18.6016522938 2.67855088424
3245 1 37.8743997377 17.1659786066 0.932061820083
3723 1 37.8130522447 19.9622283436 0.973720902371
3277 1 40.5100057094 17.1867390312 1.57580265627
3721 1 37.1668911256 20.0294434563 3.6773487583
3755 1 40.7392387417 20.1435008791 1.5074557011
3278 1 42.336649206 18.4815440459 0.493126194199
3276 1 41.3986731575 18.6274947523 3.33276038038
3786 1 43.1481369292 20.1136168869 2.05197016673
3308 2 42.8410484128 17.1915935295 2.43817874745
7737 2 45.7367894274 16.9171201408 1.28493791807
7735 1 45.7962698818 19.1337178467 1.56376040143
7768 1 47.7951980815 16.677540021 2.22769220891
7734 2 47.5986533945 18.8135462609 3.23559811932
7769 1 48.6226738307 19.0761172848 1.06083023376
7767 1 49.8375870325 18.5548095664 3.23175635656
7801 1 50.6889204549 17.1349250612 1.54868260281
8279 1 50.9127621868 19.949089613 1.51721869359
7800 1 52.5416324273 18.4504843204 2.52175903658
7832 1 55.300545349 18.4502050033 1.80480668299
7833 1 53.5452987961 17.0018139267 0.824897093689
8311 1 53.5922287056 19.9090281529 0.836150136042
7831 1 54.2688527934 17.0400846592 3.50823271393
8309 1 54.2984707946 19.8911540235 3.52827232938
7864 1 57.0737951429 17.0875939017 2.81728519853
7865 1 58.0786999311 18.4801241738 1.07930657382
8342 1 57.0490204936 19.8953852849 2.80747420177
7705 1 56.3334937186 17.0727963845 0.0607539609954
8183 1 56.3284641798 19.9034496701 0.0872858520972
7896 2 61.5072428446 18.6533927614 3.24845102753
7897 1 59.8275816844 17.1006698373 2.09541545988
7898 2 60.704965287 18.5137090099 0.21466606192
7930 1 62.403425155 17.1111566304 1.41222143672
8375 1 59.7718413635 19.9186832984 2.0785156898
8408 1 62.4374844029 19.9245880519 1.36880171144
7929 1 64.1385994036 18.5089623377 2.39636050127
7962 1 65.1414126451 17.0919003601 0.66179729181
8440 1 65.1462764056 19.927030875 0.651348990245
7960 1 65.877809411 17.086673781 3.40720503634
8438 1 65.8843843313 19.9372351509 3.40837374595
7961 2 66.8881334422 18.5100822837 1.66817621057
7993 1 68.61611219 17.0808987534 2.69459200977
7994 1 69.6002959052 18.5056013627 0.949573426363
8471 1 68.6154159862 19.9393095159 2.6913685631
8025 1 73.0627069379 18.4976346975 2.99915415469
8026 1 71.3309715995 17.0777960956 1.9736478267
8504 1 71.3312636979 19.9270199311 1.96929245454
7866 1 72.3315504418 18.4956079831 0.226055579258
8057 1 75.7896486272 18.4851888021 2.27876415606
8058 1 74.0599427244 17.0643251305 1.25664432569
8088 1 76.7880531144 17.0554589534 0.535849148086
8536 1 74.0566570822 19.9195355096 1.25204759189
8566 1 76.7769099363 19.9117404281 0.533705203959
8564 1 77.518431374 19.9104843474 3.29287221153
8086 1 77.5316778774 17.0495578533 3.29648319637
8087 1 78.5188865169 18.4813062714 1.55485677497
8108 1 80.2666421499 17.0432187625 2.55644298887
8586 1 80.2573901134 19.9124299197 2.56320348157
8109 1 81.249488301 18.4983788383 0.831119153883
8121 1 82.952960016 17.034872835 1.82207418698
8599 1 83.004072646 19.9286795342 1.88891699816
8107 1 81.9779653503 18.4552589399 3.57390780285
8120 2 84.5617836773 18.2545445721 3.0557393207
7995 2 83.7932151358 18.4792858447 0.111871280938
2871 1 88.5011806981 17.2922250173 0.392014097676
8125 1 87.7189525946 19.4346995837 1.508934011
8126 1 85.8298959722 17.3834228007 1.08876399541
8604 1 85.4262300348 19.8361185834 1.18207449903
3348 1 1.63361146779 21.0207745515 2.49221724892
3835 1 2.39628423979 23.2448173355 3.16030161503
3837 1 3.0744090005 22.8582070664 0.750933631124
3826 1 0.68059680987 23.7670131569 1.64348602472
3358 1 4.02936809089 21.4377438934 2.36146992441
3375 1 6.65193532891 21.4185809736 2.99402669567
3836 1 4.22656021527 24.3823163371 2.3008973385
3853 1 6.72619557028 24.2508917973 3.02766087504
3854 1 5.72290580402 22.844419671 1.23575760567
3377 1 7.40840360739 21.4023711093 0.217520613977
3855 1 7.50966110272 24.2262131791 0.206598808342
3403 1 10.1331802057 21.4043064071 0.958163177464
3880 1 8.42148640375 22.8232501049 1.98117309713
3881 1 10.1565873982 24.2682728693 0.948652289141
3911 1 11.1191603233 22.8407792913 2.70611744852
3434 1 12.8511925301 21.4211197132 1.6838002696
3912 1 12.8542036566 24.2839060416 1.68151720499
3943 1 13.84918759 22.8546531556 3.42409686206
3945 1 14.5837838091 22.8613449377 0.657376741096
3466 1 15.5818225002 21.4308792026 2.40265786037
3497 1 18.3173627576 21.4362783311 3.12244060165
3944 1 15.5787176671 24.2925522402 2.40238236596
3975 1 18.3148670844 24.2950992163 3.12274972368
3976 1 17.310961963 22.8676711608 1.37859502839
3499 1 19.0434821053 21.4399972825 0.359539243333
3531 1 21.7816555471 21.4406031285 1.08488969663
3977 1 19.0376270023 24.3028273385 0.354358922452
4008 1 20.0468611111 22.8691148127 2.10107431856
4009 1 21.7798500036 24.2975553798 1.08360250907
3562 1 24.5220664242 21.4400589096 1.81074156715
4039 1 22.7869813019 22.8669501252 2.82770076857
4040 1 24.5227412979 24.2953977992 1.8096233551
4041 1 23.517528062 22.8702609753 0.067126139991
4071 1 25.5252482639 22.8645325642 3.55389396617
3594 1 27.2580292714 21.4374111724 2.53693817823
4072 1 27.2610603677 24.2963835132 2.5329528185
4073 1 26.2611187562 22.8732016595 0.790385187003
4105 1 28.9941300146 22.873210429 1.51176581975