ITEM: TIMESTEP
38000
ITEM: NUMBER OF ATOMS
5376
ITEM: BOX BOUNDS pp pp pp
0.0 39.5600404449
0.0 42.7297273569
0.0 37.0050293879
ITEM: ATOMS id type x y z
2 1 0.759568847866 2.19737761892 1.57243192154
24 1 3.32097457338 1.6507105762 1.82793827074
22 1 1.83356375169 3.18560855915 3.68924519273
674 1 5.79261210456 1.66637717776 1.83177757143
676 1 7.42095865925 0.140626756023 0.0707906832137
694 1 6.64317955555 3.20530197042 3.59961709487
23 1 4.23497034254 3.21169835922 3.60230049358
675 1 4.95145672529 0.139831383163 0.0490698309561
696 1 8.2283819768 1.65599136463 1.83921339245
1346 1 10.6393239864 1.64179961398 1.86059154775
1347 1 9.87397806692 0.145537620895 0.06930729771
1366 1 11.4656646627 3.17777114528 3.56464813773
695 1 9.0519963587 3.19357296168 3.59572754534
1368 1 13.0452113947 1.68361684561 1.81595662261
1348 1 12.3016986879 0.129645844675 0.0958003245332
2018 1 15.406097423 1.66173351455 1.77210575344
1367 1 13.9056022681 3.22605733496 3.62562216879
2019 1 14.76872923 0.123332471506 0.0234252099966
2020 2 17.6550319886 1.75019606639 1.89209983306
2170 1 17.2821975846 0.120147563517 0.0727488834928
2167 1 17.1690092149 3.86081788107 1.44699147224
2181 1 19.7483037627 3.0104326003 2.53078258091
2683 1 19.1357971819 0.126158465153 2.0025264993
2695 1 22.3201309579 2.98605309526 2.62976187033
2696 1 21.5434736087 0.679489008804 2.23634655252
2689 1 20.9711790898 2.21139204133 0.600288598165
2703 1 23.2771791879 2.19139490867 0.475310008409
2697 1 23.9974772092 0.679565456939 2.20772781133
3361 1 25.6506688132 2.19552850515 0.429004480951
3366 2 24.8113415105 2.97867559802 2.61432858399
3367 1 27.2506108025 3.00095243319 2.59616356657
3368 1 26.4300363649 0.710865070528 2.18599479934
3369 1 28.8626370211 0.714372197898 2.17170538582
3375 1 28.0460890234 2.22740528227 0.404926194077
4033 1 30.4673978428 2.23584539088 0.387387007716
4038 1 29.6505997431 3.00548888875 2.57228891122
4040 1 31.2968571712 0.700032655582 2.15040215239
4039 2 32.0319993964 3.03086168543 2.51556198238
4041 1 33.7700797777 0.675699997153 2.07003399454
4047 1 32.8892822899 2.24816790109 0.346604845839
4710 1 34.4202810364 2.9382762487 2.55881759663
4705 1 35.2595034059 2.12681006436 0.211068499774
4711 1 38.0557975379 2.1828795391 2.33450257951
4712 1 36.1880089114 0.743184791133 2.11094296825
4717 1 36.357242305 3.619425588 1.51749643051
5241 1 37.809544387 1.93720048482 0.0878612074399
5 1 38.9289486661 3.72079398271 3.69166908282
165 1 2.81629656883 3.92501849727 1.53989665946
4870 2 1.08076651904 4.46568742213 0.321773679738
7 1 3.43435565019 5.54587300817 3.19175239821
11 1 1.95975811134 6.38675448361 0.937689258822
20 1 1.01203651278 5.17643065347 2.75470634393
13 1 2.52540585645 7.75114713613 2.79889059512
185 1 39.5607966667 7.23415647098 3.04316950527
678 1 5.09217463526 3.9747076884 1.39729323789
679 1 7.48046758863 3.96456135558 1.40546762339
30 1 5.87118577675 5.51249982265 3.16616683239
12 1 4.30838811909 6.26498563135 0.980160422171
683 1 6.68906281239 6.25974271839 0.95146705704
1350 1 9.88520621468 3.95894069975 1.40886216487
684 1 9.09517995879 6.25406790741 0.955275354117
702 1 8.29367584153 5.50523091702 3.16960031632
1349 1 10.7074559802 5.49133353897 3.15828765922
1355 1 11.5085181716 6.25087581946 0.963738631052
1353 1 9.89799425321 7.76463681998 2.69672748884
2022 1 14.7161456541 3.94403809729 1.43029941594
1351 1 12.3083155138 3.96971031761 1.4015037948
1374 1 13.1480582308 5.49370251471 3.11387231113
1356 1 13.9233799429 6.17046933169 0.900426224355
2021 1 15.6039494129 5.37716477011 3.35544000429
2025 1 14.6688116234 7.62875694118 2.60838277612
2183 1 18.1338757519 5.25121286995 3.21441975258
2028 1 19.2116608688 5.16581200563 1.02897458743
2026 1 16.3331776466 6.01186783518 1.01880562198
2027 2 16.9901767026 7.31116207056 3.1236603345
2064 1 19.3961956308 7.41880078684 3.37601206369
2208 1 18.1779551197 7.33424596061 1.15637469741
2693 1 20.7266532294 5.29972514271 3.01239266549
2700 1 22.6083416614 6.67265607795 1.1325476249
2701 1 21.6297327408 4.57011252594 0.925712052367
2720 1 23.2846870356 5.1911733993 3.02935051381
2718 1 22.0651764769 7.23353723144 3.46712069347
2698 1 20.5353344845 7.53603801579 1.31316311192
2702 1 24.0355803944 4.50475444339 0.828681281712
3365 1 25.7173210161 5.26199397127 3.02659601303
3371 1 24.9275063875 6.74861026276 1.24396111134
3372 1 27.3335715003 6.7549215963 1.22984153668
3373 1 26.4593172223 4.50153347392 0.815901910799
3390 1 26.6612016486 7.52746232274 3.44614206778
2719 2 24.3313494343 7.49006753649 3.45315699311
3374 1 28.8922072769 4.50700514483 0.790644669221
3391 1 29.0857206042 7.53021501553 3.43382019895
3392 1 28.1406859802 5.26499704501 3.01430163029
4037 1 30.5780359809 5.23546551634 2.97995932437
4043 1 29.762581266 6.75727182929 1.20987048898
4045 1 31.3733113821 4.5166056198 0.733166049439
4062 1 31.5741187899 7.44240003354 3.29294529396
4044 1 32.2071068741 6.74552499277 1.12405736189
4046 1 33.9586499924 4.49072167293 0.68342455892
4064 1 33.0374359911 5.32049928722 2.83691940929
4715 1 34.6174138257 6.7799151651 0.94004812708
4709 1 35.4508948506 5.57626044734 2.92934666482
4736 1 38.5748460359 4.09672539055 0.904351804721
9 1 39.0641939403 6.59460422565 0.654853692172
4734 1 37.8247495102 5.58643580172 2.52390452974
4716 1 36.6568500151 5.57855288807 0.427074405044
4732 1 37.0490742028 7.76351793864 1.48010385807
15 1 3.47697285184 8.56522937499 0.600762614528
186 1 1.84544035333 10.0423782236 2.41044874408
1 1 1.11364598028 8.51394857037 0.777802032963
172 1 2.60126580179 10.8005344937 0.126036560358
4868 1 0.229699549541 10.7687722895 0.123680630068
677 1 5.02692982933 7.78882151425 2.75930088663
682 1 7.47470811586 7.79128754095 2.73192050789
681 1 4.28064787908 10.059623897 2.3454801257
673 1 5.8869515911 8.55729521794 0.554719232942
685 1 6.730377505 10.0887224717 2.31813481094
844 1 7.52093623002 10.863928375 0.116078626191
843 1 5.06711971922 10.8580801386 0.139812027612
686 1 9.1849990569 10.0957908147 2.29970980763
687 1 8.31956683394 8.56670007285 0.53725489593
1345 1 10.7546184491 8.57367512399 0.542910557935
1357 1 11.6676208812 10.1462109098 2.30845350909
1515 1 9.97916058578 10.8626739019 0.0952241009102
1354 1 12.3046441208 7.78914659302 2.74767740263
1358 1 14.0627553617 9.94670908533 2.30759179578
1359 1 13.1699478451 8.51035444811 0.513929229457
2029 1 15.5584443745 8.29475965551 0.346246492758
1516 1 12.4393650546 10.8306627651 0.0556795060449
2187 1 14.877014326 10.683245344 37.0489891741
2226 2 15.841796535 11.5746265322 2.04022179331
2699 1 16.4920296637 9.43722540369 2.17041015066
2202 2 18.7265664628 9.46036690289 1.2218070283
2214 2 19.1965802484 11.3052005233 3.59295262926
2721 1 23.1519218519 9.00766373297 1.76075865266
2864 1 21.5707805565 11.3713480058 2.30459468836
2716 2 21.1118502381 9.09014364325 2.97131607431
2859 2 22.4698064196 10.6755295581 0.0992938296303
2865 1 24.0421634364 11.3252191337 2.21100533873
3370 1 25.6485229628 9.03897618614 1.72610588991
3536 1 26.4925251745 11.3148095134 2.17167271358
3393 1 28.107459154 9.02432158086 1.69202139816
3537 1 28.9553609311 11.2653757873 2.13229755962
4042 1 30.5591494545 9.02833062994 1.63851094292
4208 1 31.6566718662 11.1882104791 1.96334392379
4063 1 34.4618214451 7.95551796152 2.86741455563
4726 2 35.4181381533 8.9356106946 0.45179003628
4065 1 32.9174566502 8.97217387526 1.36379780736
4209 2 33.9954476606 10.4818296208 2.77219034988
4874 1 34.2303882223 10.7652837121 0.275562647115
4880 1 36.1955324134 10.2008848491 2.2695614469
171 1 38.8195942096 9.33655597421 2.20751841815
318 2 38.3016307885 11.4674625799 1.87884954684
192 1 3.50136863775 12.3102340026 1.90087536407
319 1 2.71655642172 14.5733799399 1.46326721832
5027 2 0.514132845773 14.3861909799 1.32941707731
170 1 1.11666990259 12.2684993448 1.90674783924
184 1 1.72577720737 13.869453177 3.68843418839
842 1 5.93644429646 12.3783066871 1.8825686006
846 1 5.1045077104 14.6432799826 1.4456288548
847 1 7.52916006781 14.6889874187 1.4343901999
862 1 6.740679 13.903277657 3.63779835756
191 1 4.2687459628 13.8765370666 3.62443529936
864 1 8.39680707274 12.3807029865 1.85109367631
1514 1 10.8826229885 12.3915025928 1.8238349395
1518 1 9.95676963468 14.6962737123 1.39498735098
1534 1 11.6434564197 13.9533676469 3.53503198005
863 1 9.20805921262 13.8557935329 3.59929948721
1519 1 12.3488705352 14.757076005 1.35519460346
1536 1 13.4535332517 12.4103270547 1.55971401835
1535 2 13.9917373134 14.0804977597 3.11274634518
2186 1 14.6674326317 14.8229178618 1.08416616526
2350 2 18.5589188816 12.6850796701 0.701135255407
2196 1 19.2401356412 15.1897219656 0.920448483277
2206 2 16.9089371573 15.3429245841 0.943634045135
2188 1 16.2775469951 12.9604143863 0.176395355961
2191 1 19.8231056652 13.6142642683 2.74957789271
2862 1 20.830598699 12.9121381992 0.524108782313
2863 1 22.3272994332 13.6511386469 2.68362740435
2869 1 21.612367178 15.1787827583 0.934512196143
2871 1 23.2347894542 12.9006983395 0.500822415848
2870 1 24.0480341613 15.1808841791 0.894709011437
3529 1 25.6722178674 12.8673810328 0.442832651094
3534 1 24.8087305556 13.6400891036 2.64294515852
3541 1 26.5121253436 15.1774941952 0.864430534694
3535 1 27.230694869 13.6068269857 2.60294865579
3542 1 28.9782748857 15.1379129697 0.85975865604
3543 1 28.1483247606 12.8712926937 0.420469017328
4201 1 30.6033819139 12.9355573159 0.437533455742
4206 1 29.5995965367 13.5006580397 2.68626367901
4213 2 31.3736137544 15.4068032699 0.29987929786
4207 2 31.8418739547 13.2324187624 2.80754843513
4226 1 34.3198514554 12.6549135098 1.99640874493
4215 2 32.9139173888 12.6212679101 0.0486498870293
4214 1 33.8241660241 14.9958101311 0.514093895594
321 1 35.4931050878 15.3845878681 2.30115899613
4895 1 33.6810803346 14.3017114243 3.47342640947
4904 1 36.6047365153 12.9880803359 1.60855821216
173 1 38.6612753083 13.62544177 2.95238223842
4878 1 36.186634295 15.0801380281 0.0560624087385
4886 1 37.83971953 15.410160224 1.72533046934
178 1 2.54945041527 18.3800296881 2.79072636544
198 1 3.35885507576 16.1323054372 3.20898861711
310 1 1.83144594468 16.7967196788 1.03911784995
183 1 3.36287336735 19.2242477975 0.618422773532
179 1 1.06377351842 19.275574226 0.587868529166
4896 1 0.626102684034 15.9610568524 2.98718382282
180 2 4.23589286019 16.9142745345 0.995970803064
845 1 5.88586986942 16.189769806 3.17359053548
849 1 4.98270864947 18.4553736298 2.77718202221
850 1 7.40649145923 18.4819708548 2.7972362028
851 1 6.67254616754 16.9721243479 0.989781380839
841 1 5.75356653087 19.2552294751 0.575012978097
852 1 9.10156893206 17.0274667343 0.963449744643
870 1 8.34182046395 16.2067742691 3.20830218028
1517 1 10.7590579907 16.2361538069 3.13211591433
1521 1 9.82454671723 18.5423698001 2.86518256536
855 1 8.10829441302 19.2768242712 0.601422265896
1513 1 10.4027108098 19.3722977956 0.72698584925
1523 1 11.4880652275 17.0286655565 0.928775907512
1522 1 12.1677939705 18.5812408526 2.66982784005
2193 1 13.2508823705 16.4410478803 3.21022087354
2189 1 14.497061107 18.7616375708 2.57875636514
1524 1 12.6575741029 19.1294817372 0.256354213818
2190 1 13.9033204549 17.164257483 0.819134967555
2207 1 15.60907142 16.5456316667 2.48753998197
2194 1 18.2086252065 15.9078149263 3.19444974219
2199 1 17.6134444996 17.5577052342 1.51702260141
2867 1 19.1775644325 18.2263824184 3.6233742329
2215 1 16.7995444808 18.4585190932 3.58918391191
3007 1 20.0157266015 17.4488534712 1.42744363718
2888 1 23.1766432644 15.9449073072 3.10666162637
2868 1 22.4335862144 17.4661093776 1.35081896047
2886 1 21.6130464335 18.2098125581 3.55632818848
2861 1 20.6845731571 15.8972286214 3.15472949903
2887 1 24.0637654955 18.2362851391 3.52649799209
3533 1 25.6151158748 15.9460705831 3.06673416228
3539 1 24.8715325375 17.4797760286 1.30784591801
3540 1 27.3250721788 17.4791738549 1.26106088108
3558 1 26.5235364308 18.2265173527 3.48973686751
3559 1 28.9679550592 18.1937502332 3.44797401155
3560 1 27.9782550696 15.9351593629 3.03835744596
4205 2 30.1464305039 15.8332659923 3.12172010105
4211 1 29.818562049 17.3980057253 1.12473799557
4212 2 32.5142037928 18.6466311317 0.906816737316
4232 2 33.3029813121 16.3432510833 2.68828323152
4883 1 34.6873990519 17.331960222 0.960462921663
190 2 39.1447414017 17.5424403695 1.51672359538
4884 1 36.7650376456 17.5785830086 2.13018779948
5048 1 36.0836403003 19.3358860442 0.221780787213
181 1 1.51968937747 20.7505443899 2.38742482478
360 1 3.28171217279 23.0764428017 1.94548699065
340 1 2.4963130295 21.5465035018 0.211346722643
353 1 0.870755556916 23.0973022545 1.89285782679
182 1 4.06943174001 20.7463707778 2.364653951
853 1 6.54031119749 20.7818259857 2.33887575841
1010 1 5.73049006702 23.0836252852 1.91869958935
1012 1 7.35390263633 21.5783189658 0.123733486668
1011 1 4.92026036593 21.5377377532 0.197005998817
854 1 8.97095041855 20.8241469114 2.33984237539
1032 1 8.16485250232 23.1168719447 1.87948201971
1683 1 9.77191862048 21.6689962109 0.180050583945
1682 1 10.6162088829 23.16865948 1.84560365544
1525 1 11.3600943206 20.9059562012 2.25986644197
2369 1 12.2892689388 21.5330396493 0.0619458847815
2354 2 15.2018761626 23.0755745401 2.26651259028
1704 1 12.958764254 22.8391144056 1.97464886767
1543 2 13.1672774146 20.7246512312 3.53452180442
1526 1 14.7684045607 19.928039641 0.255174034528
2197 2 16.2901670192 20.0178403933 1.91365035605
3026 1 18.516551533 19.8077405023 1.85451340981
2376 1 19.1620552598 22.1163449745 2.26962280989
2356 1 17.405663853 21.2594149417 0.0336356972117
2866 1 20.8665716289 19.7701852485 1.82942471267
2889 1 23.2754425579 19.7618489899 1.76429930959
3032 1 21.6333865672 22.0587809323 2.27148799779
3012 1 19.9583297933 21.2667726762 0.0880243720666
3027 1 22.4340000762 21.2981871043 0.0246185751291
3033 1 24.0729093916 22.0454694534 2.17093140532
3538 1 25.700629749 19.7656399438 1.72060938116
3704 1 26.5029001222 22.0334738341 2.14617402187
4210 1 30.5310712406 19.7340869763 1.69464766674
3561 1 28.1338402847 19.7405544403 1.70085937786
3705 1 28.9103014626 22.0367647301 2.11616937961
4376 1 31.2858165101 22.1274385022 2.08250572157
4233 1 34.4195935277 19.670424128 1.88197848522
4377 2 33.4993844877 21.7501423863 1.9361015366
177 2 38.8478851858 20.1372600077 3.47297469602
5037 1 36.5370715603 19.7950986906 3.05966505594
169 1 38.2622323487 19.6896930056 0.993321383486
5046 1 36.0775536313 21.6408796024 1.56573705867
4882 1 38.3767761151 21.8139210262 2.03812444038
343 1 2.5953409462 25.3992003983 1.45726982797
366 1 3.21176367117 27.0338100425 3.1270268739
5066 1 0.31076390076 25.4143016464 1.65657243585
1013 1 5.72981388746 26.9580268947 3.20012104058
1014 1 4.97023734115 25.410254181 1.48629379325
1015 1 7.38359862556 25.4081598912 1.44934671545
1030 1 6.53693713896 24.6346435803 3.65975178683
359 1 4.11608845115 24.605118566 3.62713891799
1038 1 8.16033457192 26.9528765483 3.1902947896
1685 1 10.5970904402 26.9521522116 3.15582571024
1686 1 9.81192745088 25.4068983931 1.39744516075
1031 1 8.96208895104 24.6764308447 3.62296268454
1702 1 11.3993209613 24.6605743274 3.58656723145
1687 1 12.226103892 25.412410165 1.46615007701
1710 1 13.0476180669 26.9411490371 3.20097541174
2357 1 15.5537951871 26.8203970485 3.17531523958
2358 1 13.7613332298 24.6065595696 3.47544531392
1846 1 14.312636885 24.5903211656 0.707331842904
2517 1 16.6670807615 24.9947947294 1.18787541912
2359 1 18.373125455 23.4663217615 0.381710549927
2505 1 19.4800790311 25.5450694688 0.840888405778
3046 1 18.0519062891 26.8968167367 1.94888959908
2374 2 17.2853255595 25.0860196972 3.53133645992
3030 2 20.2368956019 24.233022758 2.83416092132
3039 1 23.2563610911 23.5750544693 0.441618931444
2364 1 20.8483463024 23.5228655664 0.485177436793
3031 1 22.5099075774 24.3357702102 2.67258149083
3056 1 23.2556463657 26.6219229045 3.04858266863
3029 1 20.7175308289 26.5829010037 3.01582139386
3037 1 21.7604121658 25.841255956 0.882331930031
3038 1 24.1079999301 25.8565282191 0.848182926523
3697 2 25.6797624521 23.5788583616 0.400620109806
3701 1 25.6965987728 26.6138122018 3.02257766811
3702 1 24.8873168073 24.3313687547 2.6205274745
3703 1 27.2802114171 24.3328567862 2.57239809559
3709 1 26.485817285 25.876730312 0.812687778643
4369 1 30.5281341742 23.6036280505 0.325034412107
3710 1 28.8516838367 25.8814088576 0.779019152189
3711 1 28.1032033335 23.572081132 0.360991745393
3728 1 28.1163569636 26.6174909254 3.01814515419
4373 1 30.5307338007 26.6367080299 2.99626993171
4374 1 29.6466862084 24.3489655227 2.556847366
4381 1 31.189509544 25.9529055512 0.687017780944
5201 2 35.4227958133 23.4945334651 0.0215265937983
4375 1 31.9233990263 24.5354610868 2.49957131697
4382 1 33.5235567738 26.0833324436 0.628564522325
4400 1 32.9214819775 26.7122056792 2.95526411227
5087 2 34.1122839005 24.8306413659 2.394824595
5206 1 35.4288105516 26.8031151556 2.77077256632
4383 1 32.956915001 23.6194728251 0.334152630847
5045 1 36.1792907409 23.9998731861 2.48169094239
5055 1 37.7675483289 23.703154511 0.821744433206
5192 1 35.9464772244 25.8007537359 0.558280219114
5049 1 38.4298822768 23.9947063684 3.10698441354
5070 1 37.6612121166 26.2104137144 2.08244069816
347 1 1.75618379274 27.8665263636 1.00751423442
346 1 2.31733130405 29.2928747071 2.84382509581
351 1 3.27990176057 29.8937851229 0.441887085978
341 1 0.571579884002 27.6189977649 3.19974434464
507 1 1.20128393924 30.7767954116 1.00561898937
348 1 4.14143972926 27.6945615562 0.994886946677
1009 1 5.66848667234 29.9712592643 0.551695228432
1017 1 4.77440903528 29.2315277744 2.7828426476
1018 1 7.2761032585 29.2295678849 2.75024828526
1019 1 6.54881601053 27.6999767377 0.994611037766
1020 1 8.98205579641 27.684629021 0.974825782324
1023 1 8.12374886922 29.9549953341 0.534952731257
1681 1 10.5861951282 29.9151190477 0.505159413605
1689 1 9.74924341238 29.2191919389 2.73217367857
1691 1 11.429058251 27.6693271282 0.944726589502
1692 1 13.8871455465 27.5480895128 0.985329014193
1690 1 12.2029561142 29.180415462 2.72306567002
1695 1 13.1419308558 29.8680437168 0.51758150346
2361 1 14.6768772515 29.2390909301 2.66746679777
2353 1 15.8603786995 29.8267958022 0.222524208053
3035 1 16.1752211956 27.5673802531 0.864004844115
2362 1 19.3547171657 28.931775651 3.16302197757
3198 2 18.1172796034 28.9206618004 0.841583429967
2366 1 17.0165442372 29.0202779443 2.87176714233
2381 1 20.1680738271 27.989559047 1.16866236817
3057 1 23.2919215869 30.4500832869 1.72574857355
3034 2 21.0035625046 30.3678850025 1.78583413068
3054 1 21.719118572 28.8194663658 3.50552784297
3036 1 22.4938299333 28.1554165162 1.27867124862
3055 1 24.1166054762 28.9028785339 3.48169276318
3706 1 25.6934284247 30.4372030826 1.73674312389
3707 1 24.8890310997 28.1534976349 1.26841517933
3708 1 27.2990008395 28.1553740801 1.25366957241
3726 1 26.5229517444 28.9053739857 3.47713970561
3729 1 28.1157176006 30.4530829256 1.71469776952
4378 1 30.5328579851 30.4545243014 1.67560377977
4379 1 29.7064641131 28.172131836 1.22417012561
3727 1 28.9258443209 28.9048046033 3.45991005249
4398 1 31.3273029829 28.9300848362 3.40492300362
4380 1 32.1021120944 28.2055854234 1.18767048803
4401 1 32.9364496312 30.4919786459 1.6733260713
5051 1 34.5047124775 28.1865826283 1.04279938813
4399 2 33.7310508158 28.7843680544 3.37506944193
5050 2 35.2007131373 30.2618750963 1.24280216208
5041 2 39.1355225824 27.5612451756 0.784068332299
337 1 39.1284916619 29.4539966046 2.07827589772
5062 2 37.2470080257 30.2085758977 3.27467940722
5195 1 36.9156555144 28.4330688294 1.37868804035
528 1 3.1181882929 33.8731781968 1.7377726063
5222 2 1.23392564997 31.3255735194 3.17688220739
521 1 0.230943595327 34.2627329097 2.05976168691
350 1 3.79893590555 31.5015615164 2.20567300106
1021 1 6.37374890769 31.508332917 2.27311966969
1178 1 5.60201138261 33.803181696 1.7685334637
1180 1 7.2957830592 32.2376809479 0.0758481432222
1179 1 4.84152022805 32.2444977023 0.0593905378921
1022 1 8.83688212823 31.4778300853 2.29419598589
1200 1 8.0954565105 33.7678837801 1.81649085521
1693 1 11.2202799378 31.4342542474 2.29144521189
1850 1 10.5704498957 33.7484604174 1.82605696317
1851 1 9.77462439524 32.2060354064 0.105272860529
1694 2 13.4191868606 31.4339374149 2.33183338442
1872 1 13.1379051404 33.6803839339 1.85206173849
1852 1 12.2521119058 32.164225223 0.116428200788
2523 1 14.7913439344 32.1366594974 0.159966407512
2367 1 18.7688817227 31.1664719421 1.91216282957
2522 1 15.9469833251 33.8130682124 1.92211465571
2365 2 16.3973746562 31.2536583678 1.89410174856
2688 1 18.7796228762 33.7806327083 1.53429279933
2524 1 17.3268400988 32.3002892412 0.00167101290083
3180 1 19.9610582119 32.1773477454 0.106070605097
3200 1 21.3687221527 32.710157168 2.26691021599
3207 1 23.2717414458 34.2177191286 0.430520241103
3194 1 20.9180921807 34.4304936096 0.608853435074
3195 1 22.3774235086 31.993283806 0.0543064513437
2550 1 20.4609196432 34.6781068222 3.34412958902
3201 1 23.9687038442 32.756421572 2.24632640389
3865 1 25.68551594 34.2482610311 0.429748462069
3872 1 26.4512137622 32.7396881277 2.19308031428
3866 1 24.8363499438 31.9476557231 0.032976579521
3873 1 28.889862385 32.7640460305 2.14855355671
3879 1 28.1090661108 34.2764481344 0.401541964085
4537 1 30.5429320451 34.2988225566 0.385077656162
4544 1 31.290631375 32.7212356467 2.03240201909
4545 2 33.7563917609 32.8678587853 1.9627580166
4551 1 32.9923379912 34.320525652 0.360985377933
5209 1 35.4598731254 34.1601384949 0.467298276414
5214 1 34.6587214772 34.9505297917 2.63078063348
5202 1 38.6198288923 31.9763283201 2.06646889443
5216 1 36.1554199868 32.3710127604 2.07530920956
5362 1 37.8774596607 34.1911810939 0.577972465365
5215 1 37.2289460507 34.3170442736 2.90305300586
511 1 2.26722544693 36.122046746 1.37852848364
534 1 3.16292245676 37.6271357261 3.13714935075
510 1 1.78230538395 38.4302014173 0.975099955366
546 1 1.6398734024 35.3971718754 3.59862104606
506 1 0.647209120301 37.868749753 3.03707346117
527 1 4.07033876326 35.3556840571 3.43509711407
1181 1 5.68783352781 37.554447627 3.14232100162
1182 1 4.81507514653 36.0915673646 1.29665356812
1183 1 7.32722861403 36.0583436782 1.37079644074
1187 1 6.58877772908 38.341019515 0.967597109333
516 1 4.15644879595 38.3995469625 0.982541349102
1198 1 6.52669568265 35.2961035126 3.51892421193
1188 1 9.02381120716 38.293955652 0.987421732051
1206 1 8.16183124494 37.5466340455 3.17378946898
1853 2 10.6651273917 37.4553648914 3.0528974465
1854 1 9.77934637909 36.0054019924 1.35761852806
1859 1 11.4693437318 38.2795668202 0.926553406508
1870 1 11.3648216137 35.2179162977 3.58470193985
1199 1 8.95215176356 35.2825607699 3.56508788842
1855 1 12.2536226224 35.9695316568 1.40238945601
1860 1 13.9165555455 38.2316096386 0.940842509455
1878 1 13.053601912 37.5385195772 3.14662172686
2526 1 14.7213279983 35.9324223545 1.41815433274
2525 1 15.4861627081 37.605342743 3.03892424519
1871 1 13.735237928 35.219937953 3.5585172006
2527 1 17.1695776293 35.9751301272 1.35575345917
2531 1 16.4502315833 38.2593450427 0.824498805096
2682 1 19.5325767437 36.4304796428 1.37228682115
2530 1 18.0371442224 37.6032665741 3.07029202588
3215 1 18.226709363 35.2190501949 3.37392836332
3199 1 22.5745254774 35.00404411 2.55609553475
3205 2 21.900965521 36.5516740235 0.818136627745
3224 1 23.1870848036 37.3005143625 3.04662516644
3870 1 24.9118829935 35.0157110147 2.63839082254
3871 1 27.3220114085 35.0237431216 2.61898623132
3206 1 24.1504709627 36.5509423197 0.848479243526
3869 1 25.6405572834 37.3233989519 3.04052436722
3877 1 26.5295654955 36.5422704111 0.859091213719
4542 1 29.7607177263 35.033987239 2.60176439817
3878 1 28.9441057949 36.5647160101 0.843368345847
3896 1 28.0812191944 37.3358137099 3.03574812079
4541 1 30.5014245015 37.3393412242 3.03151086734
4549 1 31.3962406954 36.5564948873 0.864793184459
4543 1 32.1988151381 34.9951620049 2.60379428333
4550 1 33.8817889848 36.5573978804 0.897180026478
4568 1 32.8853161459 37.3512565911 3.02594811277
5233 1 35.2007187715 37.3034909502 2.92333366712
5217 2 37.4283269302 37.2772708989 2.81110747366
5213 1 36.5009422824 36.2201335219 0.906603474106
5239 1 39.0666050855 36.6136826476 0.915967543956
5220 1 36.8726566559 38.7052065688 1.07678796452
514 1 2.57848224427 39.9974142966 2.71767652738
517 1 1.699423065 42.3887227639 2.19648133441
519 1 3.39668195357 40.7344332407 0.567892217621
515 1 0.977673823568 40.8171723111 0.445435542734
505 1 0.13978657506 40.3916336125 2.64872505755
518 1 4.18906189139 42.1778825795 2.28281379536
1177 1 5.83455337247 40.6315723916 0.526070069059
1185 1 4.99207705117 39.8755666836 2.7162927588
1186 1 7.41348618885 39.8266191383 2.73538964103
1189 1 6.62226806221 42.1250783815 2.28729074375
1190 1 9.04997367608 42.0845746317 2.28121572403
1191 1 8.25052207803 40.5805024432 0.52660248919
1849 1 10.6818609216 40.5801574125 0.54439790334
1857 1 9.8188979344 39.7888752607 2.73582391192
1861 1 11.478152835 42.089366655 2.27821970341
1858 1 12.2232061999 39.7889990165 2.6985237913
1862 1 13.918633051 42.1303081956 2.20717002976
1863 1 13.1305174408 40.5453890567 0.523136301801
2529 1 14.6360465978 39.8387285911 2.62290115806
2533 1 15.6144842015 40.5886665017 0.526996001983
2034 1 16.4559788574 42.2455124236 2.32097666249
2549 2 17.0218706526 39.749591789 2.45498849582
3202 1 18.2286659805 40.6806873534 0.741451532625
2548 1 19.1107582978 40.0106580237 3.2692369321
3204 1 22.4340964513 38.8715446695 1.32810593211
3197 2 20.0545367833 39.0052429163 1.47776841278
3225 1 23.1977163322 41.1445995863 1.75513583282
3222 1 20.7743826762 41.1574252571 1.78020718706
3203 1 21.6192492854 39.6219423359 3.48182004956
3876 1 27.2589805513 38.8615238817 1.28697621703
3875 1 24.8365962396 38.8598736205 1.30302703972
3223 1 24.0164580137 39.6070179355 3.50783816157
3874 1 25.6223079093 41.1575635532 1.73965386601
3894 1 26.4538099023 39.6272368149 3.4894403225
4547 1 29.6826166112 38.8696343549 1.28241753809
3897 1 28.0512428341 41.157838006 1.72937327117
4546 1 30.4865963417 41.1621797544 1.72637203012
4566 1 31.3263187163 39.6301285181 3.48063673343
3895 1 28.8901595903 39.636039273 3.48190431505
4548 1 32.0831637501 38.8705579347 1.2772857758
5219 2 34.4375205008 38.9670828542 1.25464502788
4569 1 32.9234859375 41.1600257312 1.69922454863
4567 1 33.7568011849 39.6681016445 3.45362172684
5218 1 35.3678838085 41.1636355833 1.62718958022
524 1 38.8586020176 42.7112527108 2.18170858244
513 2 39.181481357 38.9798786851 0.868515161321
5238 1 37.7160900911 40.9685565282 1.28842666881
5237 1 37.1201796851 41.5205017581 3.58356158185
5232 1 36.1967352145 39.4660614679 3.24677401119
17 1 0.267143847153 1.29780610391 3.89812556272
18 1 2.60548688758 0.93599998497 4.11864101084
42 1 3.39367741662 2.46581385319 5.83518042919
35 1 0.995295183003 2.70531771741 5.84656084146
531 1 1.52297055024 0.205406049399 6.24647267774
36 1 4.12909529131 0.161020935847 6.2609410092
689 1 5.00997985271 0.9311940978 4.05835490821
688 1 5.82716654947 2.44332341078 5.81184658475
690 1 7.41571997047 0.909648832939 4.05352853972
707 1 6.58395779848 0.136559528014 6.26140068001
714 1 8.24500407554 2.43097181909 5.80628037146
1360 1 10.6483036096 2.4156301799 5.7782546015
1361 1 9.81581662914 0.888826672331 4.03945915701
708 1 9.0209189585 0.12901781675 6.24763510939
1379 1 11.4726494238 0.11743985 6.21147749907
2033 1 14.5256829927 0.999791245412 3.93654938071
1362 1 12.1986906242 0.907896012353 4.02130999629
1386 1 13.049839759 2.3106233486 5.78086606289
2036 1 15.3872283618 2.48116933641 6.01214082984
1380 1 14.0449412927 0.0274256529748 6.21648947385
2023 1 16.4021033751 3.02958064822 3.7331708085
2058 1 16.4203501875 0.502428931595 5.03828291805
2694 1 18.3907290662 1.2290439901 3.99743991413
2038 1 17.8128847456 2.25390899351 5.96174727914
2051 1 16.5921098308 0.658090318192 7.28383106013
2040 1 19.1040408724 3.85815504856 4.81406513093
2534 1 20.708981817 1.57331825859 4.37153119387
2692 1 19.9932171879 2.33024328857 6.61190554577
2707 1 22.4202726502 2.24695547916 6.55768086905
2715 1 23.179153193 1.47734215486 4.38392450378
2713 1 21.5779020063 3.7854543437 4.80368917152
3364 1 25.6263882124 1.47498168667 4.38643340215
3378 1 24.8682956721 2.2392521275 6.57458226492
3379 1 27.3094112064 2.25312521503 6.58002104991
3385 1 26.4958020937 3.75879761558 4.80939687794
2714 1 24.0493041608 3.74741803856 4.8185055632
3386 1 28.9240263717 3.76530980005 4.79665261302
3387 1 28.0444071523 1.48933686108 4.36502306658
4036 1 30.4355712228 1.49857983421 4.34415793119
4050 1 29.7669425945 2.25839896742 6.55208412589
4057 1 31.343586993 3.72960465651 4.77970033693
4051 1 32.2463288848 2.24445682006 6.51279102034
4059 1 32.7565045123 1.47023777133 4.11845983518
4708 1 35.0311130005 1.70466608904 4.66369854441
4722 2 34.4673443356 2.94740859909 6.76455636692
4058 1 33.7104939572 3.81806496024 4.63559450949
4053 2 33.5617858298 0.00189874461837 5.80697653502
4729 1 36.5054535342 3.49768976824 3.8235894259
4725 1 37.2494147903 1.21091782718 4.3269367451
4728 1 36.6020090983 1.97581889486 6.96388324165
4731 2 38.7175141825 1.34682849846 6.02620543883
6 1 37.9554169233 3.63238114354 6.00243584993
10 1 1.80972609055 7.01494219988 4.98500778895
21 1 2.67619392478 4.77094326954 5.35336274484
4751 1 1.03449251466 6.26029615026 7.28238478451
4730 1 0.325417320614 5.04989053968 5.2880562689
47 1 3.44188838669 6.23524489473 7.18045999862
29 1 4.24764988677 7.03761248754 4.9755462442
692 1 5.0775372023 4.74790711806 5.35496286067
693 1 7.48486868491 4.73555931822 5.36385538267
700 1 6.68853939028 7.02833099534 4.94502890049
691 1 5.90494870693 6.24035439716 7.15573968327
701 1 9.11214373417 7.03506074734 4.94027160406
719 1 8.36618704311 6.23879221286 7.14010952106
1363 1 10.8091727248 6.18833884863 7.13432852783
1364 1 9.87355519712 4.7277093388 5.363586903
1372 1 11.4838603014 7.00167262919 4.92163657244
1365 2 12.19113322 4.69478157909 5.22997771939
2035 1 14.5386613701 4.70248521145 5.4452811371
1373 1 13.8094773328 6.96610985106 4.90387495523
1391 1 13.2413003754 5.95142925585 7.11099427675
2054 1 15.5869663631 6.9247396759 6.54116980395