ITEM: TIMESTEP
8000
ITEM: NUMBER OF ATOMS
5376
ITEM: BOX BOUNDS pp pp pp
0.0 39.5600404449
0.0 42.7297273569
0.0 37.0050293879
ITEM: ATOMS id type x y z
2 1 1.02379899181 1.90232126013 1.94464544608
24 1 3.46581966678 1.79370381102 1.98636622538
4 1 2.74884260327 0.454531534234 0.218235718713
674 1 5.85747750332 1.73683377247 1.93561399571
676 1 7.47891064772 0.147665857252 0.169137793887
675 1 5.09643587741 0.163422651134 0.171354026767
696 1 8.25159809957 1.6915561963 1.93515491024
1346 1 10.6657268048 1.66221726022 1.919101414
695 1 8.99736172072 3.22569043702 3.69041375677
1347 1 9.87305470018 0.122223638007 0.149904888601
1366 1 11.3970287949 3.20871415222 3.65485272331
1368 1 13.119070566 1.67559638575 1.87318893126
1367 1 13.7692717257 3.21845743136 3.61346147654
1348 1 12.2870293515 0.115736334004 0.151531502395
2018 1 15.7106399373 1.75689702523 1.89996720334
2022 1 14.552666044 3.8235097975 1.37577894128
2019 1 14.7166908841 0.142242947786 0.182413616348
2020 2 17.9053932779 2.06748366974 0.848134847579
2694 1 18.2935259265 2.75950210931 3.14057914629
2181 1 20.6186340001 2.88390989479 3.01888513986
2695 1 22.7063722842 3.16880002862 2.39219184185
2696 1 21.4995589448 0.708928309309 1.91594760443
2703 1 23.3284695734 2.12088550465 0.353313942891
2689 2 21.0753007917 2.32634958367 0.429025623093
2697 1 23.9507878587 0.621639910665 2.23335712318
3361 1 25.6989919544 2.14712198581 0.384184985341
3366 1 24.9407766652 2.90747465674 2.57854242207
3367 1 27.2926894371 2.9055160016 2.5924978373
3368 1 26.3773642495 0.60563015381 2.20291480244
3369 1 28.820363973 0.609807067389 2.15046239881
3375 1 28.0925947596 2.14864253629 0.376449069934
4033 1 30.4996279369 2.14584821764 0.358491485029
4038 1 29.6934037999 2.90389526075 2.57719930449
4040 1 31.2807632359 0.643661041623 2.14341479125
4039 1 32.1029770544 2.93658034898 2.57457735011
4041 1 33.7437369269 0.678372258579 2.1074820307
4047 1 32.9117446026 2.16699579422 0.36004840951
4710 1 34.5414146198 3.0623573153 2.60466513149
4705 1 35.2759851326 2.27273169382 0.360060289434
4711 1 37.6727881937 2.81602598744 1.63844219641
4712 1 36.1595512702 0.873326255793 2.22451099079
524 1 38.6097358314 0.670594625114 2.15987956258
4729 1 36.5989665838 3.41033002216 3.61127301189
165 1 2.68212766961 4.03344393726 1.64503691453
7 1 3.32834566723 5.62659514234 3.30017823443
11 1 1.94648278384 6.21202018465 1.13132011725
20 1 0.721512420327 5.71576247413 3.38732911346
5 1 0.310703613221 4.15442017713 1.65472363033
678 1 5.06461902742 4.04816678541 1.5423914217
30 1 5.77967803009 5.61268400523 3.27148703452
679 1 7.44661052209 3.96531415685 1.50154479797
12 1 4.31430339199 6.3069452247 1.11732399691
683 2 6.73156497306 6.19696092897 0.976838744048
682 1 7.36455199328 7.76027819186 2.83350737968
1350 1 9.83622054648 3.94255024205 1.4595594082
684 1 9.06949940022 6.24061744909 1.04744776979
702 1 8.19001547976 5.51216539315 3.24410496501
1349 1 10.6034024996 5.49348380777 3.20739158997
1355 1 11.4772064949 6.25480125927 1.0024484503
1351 1 12.2196528899 3.96731254572 1.43078989493
1374 1 13.0248149153 5.53504002881 3.18697208861
1356 1 13.8913727268 6.25597137148 0.941959729267
2021 1 15.303007588 5.56348802413 2.97386587739
2167 1 16.9742790989 4.21466596837 1.15277211458
2208 2 16.1835370601 6.57754083242 0.813471430393
2845 2 19.2800707669 5.07532147855 0.530442991007
2183 2 17.4215860801 4.94397447098 3.2377000077
2064 2 19.3251302106 7.58955632258 3.34611256985
2028 1 19.9157713312 7.19863498674 1.07250880196
2693 1 20.8674110849 5.5274130598 2.81589311859
2700 1 22.5044620645 6.87419668066 1.18689180181
2701 1 21.6407740723 4.61474035018 0.807568197877
2720 1 23.3166461472 5.36883418669 2.97869725658
2702 1 24.1147118004 4.51855053162 0.809408524757
3365 1 25.7081131596 5.26136224947 3.06311869853
3371 1 24.9205219105 6.82212680277 1.27950991139
3372 1 27.3525692195 6.78685559263 1.27590569978
3373 1 26.5118901816 4.47877989437 0.834676335747
3390 1 26.5487299794 7.54842491865 3.49951881866
2719 1 24.1354096518 7.63553782789 3.47786818687
3374 1 28.9240534836 4.47048916481 0.815666427703
3391 1 28.9620358682 7.51844356484 3.4923613963
3392 1 28.1173827362 5.21710248483 3.0260837818
4037 1 30.553475258 5.16541710202 2.98755591842
4043 1 29.7791355137 6.78360283791 1.27003088955
4045 1 31.3261267221 4.46077423041 0.794200928962
4062 2 31.2223618965 7.28014474176 3.48691200973
4044 1 32.1742162018 6.81523685105 1.24237233359
4046 1 33.7121334081 4.42716445085 0.771652034423
4064 1 33.0426710383 5.2247769999 3.00509087477
4715 2 34.4078787899 6.56489068032 1.10968607656
4709 1 35.6657574626 5.6253965278 2.96147245797
9 1 39.1533298845 6.69508925923 1.33849748244
4717 1 36.0463318505 4.45829516544 0.880479325304
4736 2 37.9249437112 4.9971118281 2.44950661414
4716 1 36.6226430478 6.88819032407 1.10971886106
4734 1 37.7108524811 7.03708943273 3.29872886829
13 1 2.47114603252 7.84487468102 2.89316056827
15 1 3.44509189664 8.54279238081 0.671385792789
1 1 1.14398291647 8.43401341356 0.870886393364
172 1 2.53351853279 10.8157683808 0.234759417297
186 1 1.74799768367 10.1450675565 2.51999441498
185 2 0.0496429188758 8.21261427968 3.21408158154
4868 2 0.145571772745 10.2758851737 0.285108908049
681 1 4.18773699216 10.1095923901 2.40866294315
677 2 4.83368674366 7.93428632047 2.82582487164
673 1 5.83874072003 8.50759550239 0.630254840641
685 1 6.61971431453 10.0199628261 2.39952922779
844 1 7.42969632593 10.7759307864 0.173813039253
843 1 4.99533417616 10.7684782826 0.190252082304
1353 1 9.82000724941 7.78226324707 2.8049323753
686 1 9.0308628909 10.0441488666 2.36401679876
687 1 8.22638009512 8.49089922754 0.62056495477
1345 1 10.6514666743 8.51876600615 0.573327785069
1357 1 11.4300285871 10.0614404783 2.33653374899
1515 1 9.84452543872 10.8019904629 0.13488480433
1354 1 12.2936554374 7.80277651506 2.76991678932
2025 1 14.7289500814 7.92700585342 2.56048411136
1358 1 13.772722945 10.0135235318 2.32228313726
1359 1 13.0741512866 8.54200972408 0.511167245962
1516 1 12.2464448016 10.8178005083 0.10697952839
2029 1 15.520168932 8.73871092438 0.379588095244
2187 1 14.5953516523 10.9462743246 0.0286657976572
2226 1 15.9392829366 10.631952654 2.02249297846
2699 1 17.4453577634 8.49341155027 1.90162203582
2202 2 18.4432784671 10.5168896521 1.48641719618
2718 1 21.6491826575 7.82530102282 3.2145373948
2698 2 21.2768568416 9.3218223626 1.58018435033
2721 1 23.476385457 9.14454322599 1.67222263044
2864 1 21.9814876785 11.4495603936 2.01984087829
2716 1 19.9683275267 10.0074838745 3.64691208827
2865 1 24.3254042043 11.411225056 2.15555128396
3370 1 25.8452666351 9.09628625648 1.71584821518
3536 1 26.6878983252 11.3553576762 2.14790623356
3393 1 28.2840017937 9.06430196981 1.71118420287
3537 1 29.0832366753 11.3427751171 2.14964756551
4042 1 30.79035299 9.05372348787 1.727064338
4208 1 31.5041284497 11.4352063975 2.00199974304
4065 1 33.2979903085 9.12771200846 1.50845878438
4061 2 32.3896070023 10.228796935 3.61951695415
4209 1 34.0780447531 11.4117123829 2.17108376508
4732 2 35.6801289671 9.35439295669 1.01481220808
4726 1 35.63034994 8.20848403956 2.99773403694
171 1 38.9435064343 10.6280021936 2.60475930996
4737 1 37.9260770831 8.84309600066 1.38730581047
4880 1 36.4813916899 10.9337025756 2.34785499942
4875 1 37.3554018584 11.082166415 0.0354654794215
170 1 0.974487196494 12.2914070246 1.74393491181
192 1 3.44828703773 12.3288271115 1.94823258305
319 2 2.93137122338 14.5687548344 1.31426556693
184 1 2.12893314346 13.8606897398 3.53134817741
5027 1 0.87739800768 15.1727709725 1.94134915115
842 1 5.90654541049 12.2983028313 1.94717779827
846 1 5.18887406947 14.6005066577 1.48881850977
847 1 7.56606603348 14.6270672056 1.47624240752
862 1 6.82653691632 13.8765916114 3.6889260739
864 1 8.31773417553 12.3403184452 1.92575920643
1514 1 10.7564544501 12.3566728946 1.88077670154
1518 1 9.96865021772 14.6648149857 1.44065645968
1534 1 11.6173992049 13.914301904 3.64681921222
863 1 9.19838526172 13.9089719872 3.66480730189
1519 1 12.3109296104 14.5077606544 1.40812641142
1536 1 13.2669540705 12.3061764484 1.88661276403
2186 1 15.6600904534 12.9937723951 1.64066028368
2190 1 14.4295374529 15.4830492419 0.983629057737
1535 1 14.0718227111 13.8862304502 3.6580428807
2189 1 15.8284216169 15.1320514478 2.85190901016
2350 2 17.8226722846 13.8863958855 2.56756197677
2196 1 19.3515410202 15.1657541377 0.76553088142
2206 1 16.9240097966 15.2368173355 0.667148817948
2351 1 18.4524203757 12.8683073723 0.533441813721
2191 1 20.1242491356 13.6947636687 2.56114659443
2862 1 21.1045032899 13.0741431379 0.458989479451
2863 1 22.6050170378 13.7246673109 2.59643868986
2869 1 21.7863841543 15.2248341274 0.82268571587
2871 1 23.4591047399 12.8927420967 0.389503093897
2870 1 24.215008624 15.1869034457 0.831175782988
3529 1 25.8533650496 12.8738798254 0.399826385132
3534 1 25.013195554 13.68919185 2.59956069287
3535 1 27.432765154 13.6592471827 2.57539916812
3541 1 26.6313989873 15.1789234554 0.807989886432
3542 1 29.0451315614 15.2011316094 0.764858778688
3543 1 28.2707805603 12.8795193812 0.370560825683
4201 1 30.7203094147 12.9135298705 0.2898729476
4206 1 29.8353943967 13.6670256624 2.52866060983
4213 1 31.441598112 15.210461597 0.69031426365
4207 1 32.1993687429 13.7584811091 2.46517956782
4215 1 33.250966904 12.8939460309 0.295379983437
4226 2 34.4079117982 13.7324171024 2.60433177828
4214 1 33.8633844173 15.260091072 0.769454348772
4878 1 35.8612050436 13.5415936735 0.910602345045
173 1 39.2321171084 13.6015481039 3.10155777365
4887 2 37.8123810952 12.5930690664 1.64446583744
4885 1 37.7692157535 15.0981370033 1.34441704157
318 1 39.1157990331 13.6565007668 0.0846754609797
4898 1 36.7831438481 13.7883748469 3.2448088843
178 1 2.75444981406 18.4085538228 2.82966731137
198 1 3.27621275004 16.0813187881 3.22890018121
310 2 1.74479479152 17.2606198302 0.979284237766
190 1 0.536365454763 17.3853450977 2.83966126481
183 1 3.59061402315 19.0832110465 0.660104129034
179 1 1.12555061541 19.3417490725 1.06422925496
180 1 4.26383256582 16.8175369503 1.08098927524
845 1 5.87106902165 16.1383623002 3.24245100273
849 1 5.10235976999 18.4064139175 2.78099840785
850 1 7.51221267022 18.46664667 2.79569300453
851 1 6.71469177349 16.8939764866 1.05216680553
841 1 6.01172038474 19.1731756246 0.628973834026
852 1 9.16053960845 16.8994585139 1.04328112438
870 1 8.35778108221 16.1919843513 3.23588989046
1517 1 10.8266404603 16.1965243114 3.1879224388
1521 1 9.89896725768 18.5158806957 2.83098442534
855 1 8.43353183128 19.2031961838 0.627441802459
1523 1 11.7947308216 16.7994905704 0.507378880138
1513 1 10.8578906792 19.1964441226 0.583328554239
1522 2 12.0359801509 18.0586237019 2.34521368768
1524 1 13.8232288503 18.2345527405 1.00885145168
1542 1 13.4654724274 16.1294650402 2.9689350915
2193 1 15.690967229 17.3556181819 2.21410883685
2194 1 18.2537257424 16.1084831619 2.99200347394
2199 1 17.8080627877 17.4942061391 1.16520381453
2867 1 19.4278856872 18.1300066413 3.43852286662
2215 1 17.2406319748 18.9721728022 3.30953094476
3007 1 20.1728462729 17.4139846944 1.248706511
2888 1 23.3797640984 15.9598880018 3.03710114534
2868 1 22.5944088877 17.459726171 1.27962103835
2886 1 21.7638261411 18.2199333372 3.4493397467
2861 1 20.948049807 15.9278490836 2.99821942489
2887 1 24.1804634827 18.2338927768 3.4298516782
3533 1 25.8143091693 15.9499249265 3.01186973648
3539 1 25.0113929347 17.4706872827 1.24212749316
3540 1 27.4257869314 17.4828790592 1.21911123148
3558 1 26.6102009241 18.2472492953 3.42526616036
3559 1 29.0374861059 18.2673975847 3.42000213477
3560 1 28.2427946437 15.9595710302 2.98585822676
4205 1 30.6852113995 15.9840240532 2.94207938107
4211 1 29.8384691371 17.5153228252 1.19435500711
4230 1 31.4666523624 18.292361543 3.42510826857
4212 1 32.205461611 17.5386557671 1.1162062533
4232 1 33.0808598335 15.9856700572 3.03105792387
4883 2 34.3670442062 17.3273598397 1.56280445075
4231 1 33.9738871272 18.2723535324 3.52286180815
4904 1 35.6469927289 15.8938447325 2.75448438114
4886 1 38.2194494838 15.8620678535 3.53151642603
321 2 37.5766967814 17.4741489502 2.09373489658
5023 1 36.1191346915 16.1915629447 0.106829917122
4882 1 35.8104289429 19.4114405194 1.94757256637
181 1 1.76950319137 20.9767712758 2.45111797222
360 1 3.3267415489 22.924908278 1.97716426914
353 1 0.662777461917 23.227640207 2.46918948523
340 2 2.86252861364 21.1559807511 0.37348027477
182 1 4.29727026457 20.7073517108 2.41075222586
853 1 6.71614783846 20.7875995343 2.36106795393
1010 1 5.85956768355 23.1222525358 1.93847408751
1012 1 7.61182189383 21.4956816725 0.199403798482
1011 1 5.21120310979 21.4546447095 0.249404075992
854 1 9.18852624762 20.7668671976 2.37434014706
1032 1 8.33182325645 23.0613624515 1.95535907581
1525 1 11.6312901393 20.6936470844 2.43696048392
1683 1 10.0083529393 21.5360677588 0.21793600787
1682 1 10.8225885324 23.0311477251 1.96173995139
1526 1 15.061855715 19.646553418 3.09411441951
1527 2 13.8294510439 20.5030315161 1.2238981098
1684 1 12.3952447838 21.7738668912 0.155387709994
1704 1 13.2568522681 23.0407447042 1.95293226227
2354 2 15.5681188215 23.137382663 2.29548853494
2355 1 15.1706925763 21.9505532868 0.0494413955254
2195 1 15.9646571025 19.6142002976 0.784610465109
3026 1 18.5648958171 19.6941656998 1.40645448712
2197 1 16.9522991483 21.2653364512 2.34342406276
2376 1 19.285523211 22.0078055967 1.83966698307
2198 1 19.7320399904 20.5465905469 3.48747615556
2866 1 20.9523387207 19.6969590892 1.63482375549
2889 1 23.3759563897 19.7375783285 1.66299240402
3032 1 21.7143421013 21.9720853646 2.05548958152
3033 1 24.1599507625 22.0039126175 2.08783095096
3538 1 25.8079477292 19.7596288276 1.64570644546
3704 1 26.6010131583 22.0615082345 2.08729044279
4210 1 30.6706606061 19.8262025056 1.70334915674
3561 1 28.2333583501 19.7852186458 1.65586808875
3705 1 29.0634225224 22.0743172112 2.10823809778
4376 1 31.5697872814 22.1064164951 2.13247976895
4233 1 33.1966906204 19.7577003651 1.67361405603
4377 1 34.3199097033 21.8792265592 2.13582867568
4884 2 38.8029381202 19.7349183595 0.0584900604225
177 1 38.6635836422 19.4277389492 2.74132048919
5043 1 38.775107984 21.5871890771 1.75993141044
5049 1 36.9226766407 21.2372093 3.20236172554
5048 2 36.4403565719 21.6507131256 0.816167401147
343 1 2.85603825599 25.3011844411 1.48937557509
366 1 3.47174008431 26.8923270038 3.30843834182
5073 1 1.02765377133 26.962674514 3.23269682449
5066 1 0.336651121081 25.4691803568 1.3736073525
358 1 2.0278720168 24.6323450589 3.58988382619
1013 1 5.9627073971 27.0134267538 3.4909066697
1014 2 5.32474870975 25.6769756057 1.89228506094
1015 1 7.58430407788 25.3419794619 1.55189500047
1038 1 8.38618271793 26.9024072266 3.34459656255
1685 2 10.7660855086 26.8878513642 3.29563130082
1686 1 9.99490215755 25.3299154234 1.5240345999
1702 1 11.5822295947 24.6179337169 3.68205344734
1687 1 12.4360458187 25.3566028277 1.48676874526
1710 1 13.1911692852 26.8858279232 3.30037834656
2358 1 14.7488178846 25.2480930437 1.47507463617
2357 1 15.5170949498 26.8477415039 3.28839555059
3035 1 16.8707558161 26.2848596862 0.905287998069
2505 1 19.3161235046 25.6685751334 0.651178107384
3046 1 18.3194798337 26.552177318 2.6906166154
2374 1 16.6192964873 24.6469225769 3.61657372621
2359 2 18.7446179643 23.4669239388 0.254791697345
3030 1 20.013410874 24.2692113879 2.44925924101
3039 1 23.3227047012 23.4512044538 0.318091380611
2364 1 20.9698338301 23.5197595452 0.271091139172
3031 1 22.4766717129 24.2309187116 2.49053304413
3056 1 23.3546466861 26.4927478996 2.86671089889
3029 1 20.7356533127 26.4706944639 3.04155006971
3037 1 21.7984085907 25.9530042016 0.957942219104
3038 2 24.0316835668 25.5654171795 0.73158930565
3697 1 25.7360074717 23.5647909194 0.329828689799
3701 2 25.7887157692 26.6383894117 3.06995045983
3702 1 24.9347305748 24.2974898163 2.55164788657
3703 1 27.3443144024 24.3561268418 2.554369906
3709 1 26.4514423167 25.8338280332 0.816010000713
4369 1 30.6018824628 23.6095100005 0.379526534917
3710 1 28.8685522939 25.8378290593 0.861818623407
3711 1 28.1586160727 23.5747199748 0.363739285967
3728 1 28.0991973174 26.6401056915 3.02035907626
4373 1 30.4847558707 26.6592232949 3.07450404399
4374 1 29.7604285322 24.3610415506 2.58146781897
4381 1 31.2332329874 25.9462944655 0.885369013578
5046 1 35.4625516552 23.6503989074 0.362891026865
4383 1 33.0504082503 23.5670536191 0.472635238691
4375 2 32.1521489043 24.4847772673 2.610430932
4382 1 33.6144218899 25.9760697564 0.991094427872
4400 1 32.8431423864 26.7754381033 3.07818093219
5045 1 34.7038876352 24.4376417081 2.59198673058
5087 2 35.112039399 26.8224080988 3.04999692005
4901 1 37.441600361 23.840400898 2.25970003197
5055 1 35.9910687323 25.9462670778 0.937852802819
356 2 38.1048779792 26.2712785677 2.75780814355
4905 1 39.3867828361 23.5404942816 0.170511412304
5041 2 37.6837170944 24.8768180468 0.0789929188828
347 1 1.97492530929 27.5919454305 1.15898861565
337 1 0.742633560668 29.7760593238 1.14297320712
346 1 2.47600451847 29.2544573492 2.90368577222
351 1 3.48469716945 29.9710483635 0.83196295545
348 1 4.35955909914 27.7489381481 1.22712758683
1009 1 5.93522170412 29.8570784478 0.761924334939
1017 1 5.01951547157 29.2529771753 2.95440076228
1018 1 7.49394368027 29.1654506096 2.92183632174
1019 1 6.7811064447 27.63116665 1.19040025444
1020 1 9.174040292 27.6093782967 1.1422778144
1023 1 8.33712520836 29.8940082071 0.708609012873
1681 1 10.7449069191 29.9115656698 0.689417517152
1689 1 9.9404813009 29.1747550908 2.88495268209
1691 1 11.618907374 27.6466108796 1.13070783775
1690 1 12.4124808148 29.1675268818 2.89249509484
1692 1 14.153856656 27.6070367077 1.16995163657
1695 1 13.1299103521 29.9270639356 0.71621695202
2361 1 14.8690066812 29.2991868579 3.09869041394
2353 1 15.4200960608 30.1311634031 0.853408050505
2366 2 16.4934123741 28.2968975987 1.84124727071
3198 2 18.7830433542 30.3912612509 0.466153547351
2362 2 19.6688028538 28.5237503063 2.81543032263
2381 1 19.8903160281 28.0850612957 0.609499326479
3057 1 23.1924358809 30.3647641254 1.7114493501
3034 1 20.8339994182 30.3170676099 1.20526036125
3054 1 21.9688811497 28.3104424312 2.18249644844
3052 1 20.8273196688 30.4761844552 3.5948475989
3055 1 24.0446332908 28.8593699239 3.37735645712
3706 1 25.636691482 30.3402145536 1.61464630169
3707 1 24.666385457 28.0366907905 1.14962362506
3708 1 27.1761850109 28.1081492123 1.24077545459
3726 1 26.4390694254 28.9145514998 3.41677725755
3729 1 28.0713874931 30.3870147269 1.65497361331
4378 1 30.4958253666 30.4311153994 1.66270523227
4379 2 29.5804944318 28.089202191 1.32957981998
3727 1 28.8676230578 28.9335430059 3.46928367294
4398 1 31.3026228809 28.9477487018 3.46169395548
4380 1 32.0411565298 28.2182711644 1.2241662543
4401 1 32.9175748849 30.4934817729 1.70999282901
5051 1 34.4276468824 28.284226404 1.27243955638
4399 1 33.7109865918 29.0201065141 3.49798519555
5050 1 35.3421586821 30.5337656271 1.78930572765
5062 1 39.1843224953 29.5288359426 3.36016861525
5064 1 39.0266998083 27.9331350309 1.51540932273
5070 1 36.7349923095 28.1231248849 1.45740784946
5206 1 37.7370551998 30.2216686913 1.53257207227
5069 1 36.1720827604 29.0874981202 3.59474391926
349 1 1.76631632905 31.6053209079 2.26391827656
528 1 3.50350873332 33.7688239198 2.07171723423
508 2 3.23131920216 32.1643557302 0.367080632256
5223 1 0.79015806524 34.1715914129 1.48714125441
5222 2 2.05211632512 34.8996448631 3.66577981155
350 1 4.26245711793 31.5087390411 2.5552000208
1021 1 6.67995569973 31.4661329813 2.46427582281
1178 1 5.93735308699 33.7667773311 2.0940499106
1179 1 5.36424905716 32.1995524747 0.289241023203
1180 1 7.6126576574 32.2005948037 0.251569414005
1022 1 9.11136834219 31.4457085385 2.45057453257
1200 1 8.33154735167 33.7418820798 2.01349308952
1693 1 11.5399817753 31.4534094037 2.4482874483
1850 1 10.7131725952 33.7515242273 2.00638245895
1851 1 9.96570890009 32.2086779571 0.237496900078
1694 1 13.9782839386 31.4971844383 2.49088088641
1872 1 13.0912813996 33.7774114731 2.03460134048
2522 1 15.4340240405 33.8613106946 2.14647723742
1852 1 12.3743292263 32.2169198197 0.237974637273
2523 1 14.7808704441 32.3371925169 0.30041413799
2365 1 16.391386884 31.7391210334 2.74417112089
2543 1 19.3980297229 32.227616318 2.02475167912
2524 1 17.220433064 32.2472734418 0.537710079695
2688 1 17.7322053389 33.7720103374 2.63284423423
2678 2 18.6282596551 34.1297258167 0.68057173301
3194 1 20.8738205975 34.2437389208 0.182651310573
3200 1 21.6832809055 32.6086561002 1.99261280749
3207 1 23.2184144814 34.1228837469 0.279495615851
3199 1 22.3540900336 34.8838702678 2.472763009
3201 1 24.0675641462 32.665423306 2.07690865584
3865 1 25.6341068461 34.2261215201 0.313221472271
3872 1 26.4502452013 32.6764580741 2.0957586952
3870 1 24.8278248782 34.9315199967 2.53163818585
3873 1 28.8650765896 32.6965771393 2.095638472
3879 1 28.0455532082 34.272461016 0.324986413068
4537 1 30.4777990858 34.2946990534 0.363794691012
4544 1 31.2939134284 32.7405960046 2.11945338804
4542 1 29.6923219979 34.9373658397 2.64784177188
4545 1 33.7499677002 32.7866362554 2.19763380906
4551 1 32.9657081013 34.2713585384 0.393787098151
5210 1 34.5354276713 32.0482537351 0.0164078484706
5209 1 35.5393225697 34.3468599219 0.49923735391
345 1 39.2141851671 31.8671408331 0.293656905028
5216 1 36.174357307 32.795123301 2.34510957627
5362 1 38.1262507325 33.8405504505 1.6508826215
5052 1 38.9550891982 31.8854880403 2.67309914219
5211 1 36.9187594406 32.0409899016 0.150644730358
509 1 0.658940257143 38.2080832772 3.36280242997
511 2 2.53830397394 35.3425780577 0.654157181356
534 2 3.33156219537 37.6996146376 3.38796980861
510 1 1.73482700923 37.3390615358 1.25350350069
516 1 4.0608495305 38.3130224086 1.08898691752
1181 1 5.77659361727 37.6109193882 3.32975559931
1182 2 5.34055504539 35.9873508531 1.61562253458
1183 1 7.55555984785 36.040741834 1.53243372055
1187 1 6.56448207614 38.2648153567 1.07822574254
1188 1 9.03895658853 38.2901159445 1.05567750386
1206 1 8.23687881208 37.6126969404 3.29873936668
1853 1 10.6636413337 37.5937606713 3.28596263991
1854 1 9.92596312695 36.0393531734 1.52879959441
1859 1 11.5171188933 38.3080493088 1.06320654184
1855 1 12.3455597421 36.0544362853 1.54331488543
1860 1 14.0322319706 38.3386569424 1.08585614759
1878 1 13.0996102515 37.6063117039 3.28706643793
2526 1 14.7950447053 36.1189183006 1.57350528808
2525 1 15.5916909642 37.6156034057 3.31556282874
2527 1 17.1773103232 35.98391337 1.59252701766
2530 1 18.1853459118 37.1682839115 3.40999471398
2532 2 18.9064541951 37.3451231511 1.25125314313
2531 1 16.6211858706 38.4338643442 1.1569297115
2550 1 19.9227369932 35.0031866444 2.29580696713
3205 2 21.8141460229 36.3821906363 0.816077709338
3224 1 23.172177294 37.1236084566 2.91248535954
3197 1 20.6467270922 37.0895251148 2.95874249319
3204 1 22.4427293529 38.6895329355 1.10118788731
3871 1 27.2450751757 34.9842714519 2.55871145678
3206 1 24.0820178523 36.4373385198 0.723562943217
3869 1 25.6034277443 37.2214804664 2.95649168827
3877 1 26.4861057027 36.4896158875 0.714128725074
3875 1 24.8626312028 38.742039284 1.18664150586
3876 1 27.3124828348 38.7186926078 1.17803218448
3878 2 28.9159557583 36.4161609529 1.1055409299
3896 1 28.0178914568 37.2753080255 3.07535942754
4541 1 30.4652947009 37.249424724 3.07696499932
4549 1 31.2670707974 36.5383049417 0.850518049183
4547 1 29.7398946381 38.7965819695 1.35488204706
4543 1 32.1097877275 35.0187436147 2.59915413765
5214 1 34.5298154734 35.0644190955 2.63117870906
4550 1 33.6338190643 36.5306304444 0.872697484434
4568 1 32.8756765465 37.2948646995 3.08388484979
4548 1 32.1111793089 38.8137180643 1.27840207975
5233 1 35.2722612286 37.3289022979 3.22072115022
5219 1 34.4892924186 38.8184077115 1.30706924709
506 1 39.4210084108 35.887258951 3.05875731231
5215 2 36.8642690527 35.3811297937 2.5435674496
5213 1 35.9448914036 36.8046383177 1.03975555699
5240 1 37.6966262277 37.4847657221 3.16664234517
5239 1 38.5628333971 36.069164521 0.694409520776
5234 2 39.1325309702 38.0962813616 1.29643143661
515 1 1.37670150513 39.6422667506 0.813922004649
514 1 2.54963271639 39.7810075159 2.94945474467
517 1 1.74853867803 42.1912875913 2.10801412732
519 1 3.4920148369 40.6587121432 0.677164408906
518 1 4.22971727155 42.1944689462 2.35578034344
1177 1 5.85553309763 40.5756675016 0.660576729204
1185 1 4.95828078909 39.8609603169 2.8343348616
1186 1 7.3900491782 39.857764485 2.81652036159
1189 1 6.64069096278 42.1635905669 2.3826307892
1190 1 9.0516317607 42.1396549053 2.36930415719
1191 1 8.25625712835 40.57785674 0.613405489546
1849 1 10.6741971586 40.5709533128 0.603720303081
1857 1 9.81905695239 39.8570966399 2.8187532295
1861 1 11.468456843 42.1295109955 2.36461254585
1858 1 12.2270555599 39.8601234389 2.8362046857
1862 1 13.8812882048 42.1529860092 2.37574305134
1863 1 13.1006971095 40.5770979029 0.631533951211
2529 1 14.5745803103 39.8559316417 2.89191734686
2533 1 15.491381478 40.6392610411 0.750741546053
2534 2 19.4089560013 42.1885186226 2.10937322911
2034 2 16.2151475474 42.2581694419 2.45808579603
2549 1 16.8389078535 39.7696215776 3.137822586
3202 1 17.7981422705 40.9433626666 1.252189648
2548 1 19.0871352799 39.3787477051 2.61066086219
2535 1 19.1026467424 39.2856425842 0.0994666768935
3225 1 23.1663450111 41.0305406422 1.75019560006
3222 1 20.8540211159 40.6603353997 1.58328974436
3203 2 21.5953442663 39.1275671094 3.08098479557
3223 1 24.0544468575 39.3426157528 3.36103091554
3874 1 25.5681819394 41.0506368668 1.74722022043
3894 1 26.441203465 39.499787019 3.39291903806
3897 1 28.0126197866 41.0331337302 1.70270543706
4546 1 30.4526138442 41.0861277072 1.71062888085
4566 1 31.2322682528 39.5539303177 3.474822596
3895 1 28.8278763193 39.5459676731 3.46561952704
4569 1 32.8883561942 41.1218625409 1.70204506048
4567 1 33.6190743926 39.6123491554 3.51029747076
5218 1 35.2742093414 41.1195755675 1.78109561859
5220 1 36.8447727845 39.084438294 1.49366989026
505 2 39.4725438897 41.2813305815 1.0804128493
5238 1 37.3312096096 41.7680292599 0.874028846542
5257 2 38.2002435494 39.7415489658 3.67697901408
5232 1 35.9467222985 39.6176501636 3.63667574073
22 1 1.75222513599 3.32795935508 3.83603117804
18 1 2.69775745309 0.97306781218 4.02264442136
42 1 3.25485416882 2.55796264667 5.90505633587
35 2 1.91877465122 0.62372337072 6.32887707176
16 1 0.209132625092 2.29566459046 6.26261519902
17 1 0.437806889546 1.00423409748 4.14095457289
694 1 6.58916061807 3.29299532684 3.70255328745
23 1 4.18763107059 3.3263064741 3.74290890819
689 1 5.04404496631 1.01195967513 4.13573380452
36 1 4.16916849506 0.266782718659 6.32968028583
688 1 5.72471726413 2.521657818 5.91268936022
690 1 7.4303142215 0.983861099639 4.1433549218
707 1 6.58094989532 0.25590958518 6.34911145196
714 1 8.17219982482 2.50100690276 5.90458108475
1360 1 10.6096067825 2.46313491951 5.88295804648
1361 1 9.84390880069 0.953925316387 4.11656380037
708 2 9.02360543713 0.222222872798 6.32951123774
1379 1 11.4642897423 0.207591264282 6.32705690992
2033 1 14.7292936804 0.970520820853 4.08448359267
1362 1 12.2718296616 0.950884924917 4.10530241922
1386 1 13.043435652 2.45818874478 5.86725401536
2036 1 15.4982887537 2.42577286311 5.87055591381
1380 1 13.8922165706 0.205940517377 6.33528499136
2023 1 16.0282140664 3.3214713586 3.74401241277
2038 1 17.2005294091 1.22833881745 4.43811382559
2704 1 18.892980136 0.209099490686 5.92818773734
2051 1 16.2713217921 0.132241083565 6.30711307752
2032 1 17.6340600744 2.01080068424 7.09167482343
2039 1 17.7017245468 3.80174869556 5.51815339479
2182 1 19.9534257352 0.652194656479 3.82666257357
2692 1 19.8978251651 2.27880679923 5.32545903147
2707 1 22.4360342703 2.36341862455 6.5054472202
2715 1 22.6520992691 1.68770175845 4.22861358825
2708 1 21.3215266723 0.0520785629063 5.96836703777
3364 1 25.4736079829 1.34896321443 4.43240992942
3378 1 24.8900577054 2.29541591874 6.64507033003
3379 1 27.2700769579 2.1478983715 6.6023915943
3385 1 26.5368925173 3.69009437618 4.81275476774
2714 1 24.235930981 3.6510202167 4.72901492739
2709 2 23.7418394177 0.394679079125 6.13386895002
3386 1 28.8877473638 3.67993751643 4.79015866077
3387 1 27.9453442765 1.3739178926 4.38393706175
4036 1 30.3867581917 1.36357384597 4.34178002299
4050 1 29.715230019 2.18700216867 6.55679189423
4057 1 31.2040101244 3.68651159748 4.8049509315
4051 1 32.144507815 2.16612144636 6.56430554001
4059 1 32.8392959204 1.29872824065 4.32506248678
4722 1 34.6544843234 2.32012715764 6.57782897056
4058 2 33.3647123403 3.41659883787 4.77250876258
4708 1 35.2505077345 1.53162220454 4.39730843737
6 1 38.9775532921 3.18085520533 3.79684260041
4725 1 37.7068242902 1.29489225224 4.46137695434
4728 1 36.9545458536 2.9308792837 5.97528549317
4731 1 37.7076304211 1.10842524349 7.36957863593
10 1 1.72126989705 7.13504044118 5.11002854955
21 1 2.59179874621 4.88742467947 5.50657977583
4730 2 0.31330009869 4.72840693817 5.52692042139
4751 1 0.815569444896 6.31902012957 7.28071844626
47 1 3.30866253622 6.37862621172 7.23950444018
29 1 4.17116038863 7.09560347164 5.04709865265
692 1 4.97987747522 4.83387270289 5.47223092733
693 1 7.38314145178 4.75370082677 5.46229051524
700 2 6.65895474018 7.01431852605 5.14973828328
691 1 5.73075924011 6.31625837233 7.25534465853
701 1 9.02118082003 7.01880967396 5.00215414056
719 1 8.15718586472 6.28762121573 7.22500610163
1363 1 10.5528737789 6.2994018916 7.18361224268
1364 1 9.78195196783 4.73783949179 5.44509367872
1372 1 11.4391308963 7.00880832217 4.93518265203
1365 1 12.1650571524 4.73846726624 5.39820611053
2035 1 14.4844145704 4.61739036785 5.45994389329
1373 1 13.9782277171 6.9912150344 4.92846581212
1391 1 12.8982658744 6.24412051889 7.16405960723
2062 1 15.2175677938 6.198151402 7.25158574744
2027 1 16.3979038188 5.79161750484 5.18944231081
2063 1 17.6144865223 6.36844391748 7.16129000198
2045 2 19.6035843233 6.9930681612 6.51579942023
2026 2 16.3217115344 7.70829019996 4.06332548129
2040 2 19.8005420531 4.36976022685 4.61076106944
2713 1 21.9602431059 4.03803472945 4.81755549139
2712 2 22.3681757254 6.45076306828 4.75894170372