ITEM: TIMESTEP
40000
ITEM: NUMBER OF ATOMS
5376
ITEM: BOX BOUNDS pp pp pp
0.0 39.5600404449
0.0 42.7297273569
0.0 37.0050293879
ITEM: ATOMS id type x y z
2 1 0.983501240862 1.6742975693 1.63611103748
24 1 3.31730258649 1.81299572172 1.81599330148
4 1 2.52324662263 0.336886283749 0.0434490602016
22 1 1.4072229748 3.28501169271 3.56944896438
674 1 5.7500837438 1.7877239322 1.83805994613
676 1 7.408332626 0.218352944438 0.0593875572953
694 1 6.52389036763 3.30373194433 3.61211516367
675 1 4.99731427868 0.269708960649 0.0709606339698
23 1 4.0265112306 3.32446004211 3.62032852692
696 1 8.18366437245 1.74743587085 1.83363504978
1346 1 10.6065175163 1.72808661077 1.82748751418
1347 1 9.83345116907 0.204757942493 0.0713442439555
1366 1 11.4173929871 3.26689272089 3.59764855027
695 1 8.98313245608 3.28110034086 3.60892498405
1368 1 13.0020511484 1.72140705949 1.84394806373
1348 1 12.2617451745 0.150753205976 0.14128022173
2018 1 15.3360554219 1.73144037622 1.72662553974
1367 1 13.8401806453 3.29477830079 3.61813206318
2019 1 14.732169332 0.115664675863 0.0847898288885
2020 2 17.5844084567 1.90640262027 1.8537639266
2170 1 17.2826178262 0.156608534633 0.120231498601
2181 1 19.7270543912 3.12174683304 2.50764800013
2683 1 19.26732425 0.502703745003 1.98599660717
2023 1 16.215025984 3.02070153047 3.6317543415
2695 1 22.3149506494 3.08922638122 2.63298341059
2696 1 21.580975708 0.748231370168 2.26714019843
2689 1 20.9951160812 2.35825194017 0.611679960438
2703 1 23.2915908183 2.2768178229 0.505350871996
2691 1 22.3569280046 0.0359496543098 0.0227050233962
2697 1 24.0261086453 0.780830658537 2.25123606901
3361 1 25.6613194235 2.20460194313 0.47473164023
3366 2 24.8118115961 3.04606720823 2.63762106334
3367 1 27.2696813055 2.99148473657 2.64226061522
3368 1 26.4506466743 0.707154494396 2.2204796259
3369 1 28.8768319435 0.681571747651 2.20953701274
3375 1 28.0680893514 2.21024942745 0.456871796911
4033 1 30.5014761137 2.23829777299 0.445872257081
4038 1 29.7132293997 2.97185362286 2.65373710832
4040 1 31.325110473 0.696150065501 2.20618567354
4039 1 32.1271515984 3.0290769601 2.68831147883
4041 1 33.7659297256 0.629866454055 2.13455856453
4047 1 32.9268975652 2.26053391813 0.448529272407
4710 1 34.440933995 2.939917061 2.56162019108
4705 1 35.2914991616 1.98689547491 0.434407612613
4711 2 38.5634274748 2.2675775807 2.42804023777
4712 1 36.396159057 0.611282602481 2.03658756315
4717 1 36.5981839356 3.54120165577 1.87688640442
5241 1 38.2645071564 1.82182316556 0.168253764465
165 1 2.43711289878 4.02996100447 1.48745802083
7 1 3.25628901442 5.60459318561 3.21640127617
11 1 1.73410658419 6.41023273418 1.14422467779
20 1 0.833127813837 5.6160986955 3.18219044311
678 1 4.89388420058 4.06161921565 1.40251628733
679 1 7.37535186796 4.05172797203 1.41709809538
30 1 5.74472754647 5.58975552971 3.17803800025
12 1 4.16636496211 6.36897947965 1.02815625622
683 1 6.59601447784 6.34262182386 0.973545024332
1350 1 9.83263470759 4.03800195294 1.41302796179
684 1 9.04785915988 6.32306642087 0.976056046019
702 1 8.21937286978 5.58371713516 3.18458238114
1349 1 10.6773606158 5.57809671419 3.19249046559
1355 1 11.500404468 6.31432555273 0.978719606404
2022 1 14.6795534593 4.04779786274 1.42063425476
1351 1 12.2641011282 4.01836224229 1.38838206359
1374 1 13.1205879728 5.56825391878 3.15017972438
1356 1 13.9434362495 6.28409936444 0.914764874427
2021 1 15.6015220383 5.44732408804 3.25445522837
2025 1 14.6997064369 7.73590941404 2.65436456181
2167 1 17.157691308 4.02240090937 1.46158926034
2183 1 18.0617419944 5.27049859361 3.3713418614
2028 1 19.119807991 5.42196078235 1.14379101787
2026 1 16.4008271801 6.19904487795 1.03560513423
2027 2 16.9670278054 7.47032549631 3.14964116583
2064 1 19.2601321429 7.39221851235 3.38631112628
2693 1 20.6176824959 5.30729632522 3.16333729371
2700 2 22.641015253 6.80391825814 1.13537316816
2701 1 21.5427594026 4.72496013578 0.966482985902
2720 1 23.2257231495 5.31480866252 3.05464948408
2718 1 21.8354117793 7.40146896672 3.4532624731
2698 1 20.5186162037 7.4319061053 1.33892246555
2702 1 24.0026902128 4.59591292946 0.828388633086
3365 1 25.6876523462 5.29610574345 3.07267257044
3371 1 24.9080678007 6.79997812175 1.31824999773
3372 1 27.3168730888 6.76084956636 1.29616211879
3373 1 26.4568778307 4.50706742275 0.873976485871
3390 1 26.5988315594 7.5325882276 3.49681120436
2719 2 24.2523473131 7.59832460583 3.62955660536
3374 1 28.9296327223 4.49390570253 0.864887756318
3391 1 29.0201861947 7.49364384109 3.49504965078
3392 1 28.1571727895 5.24290102925 3.06535800315
4037 1 30.655225691 5.20274487786 3.07784562651
4043 1 29.7779052129 6.75931303541 1.28969376638
4045 1 31.4315288714 4.54814399529 0.842186937236
4062 1 31.4762684665 7.4561814326 3.47818724206
4044 1 32.2420524911 6.92254397649 1.2123108244
4046 1 33.9915159452 4.58326281875 0.855493351979
4064 2 33.1279492816 5.50902935656 2.7154654944
4715 1 35.0540369977 7.01375259058 1.3442129608
4063 1 33.9012421292 7.68975807119 3.43083930715
4709 1 35.6197463125 5.5217607994 3.07826401454
5 1 38.1228880202 4.192051715 3.63454225169
4736 1 39.2936085069 4.20975159597 1.41977543268
9 1 38.9789673684 6.57694535672 0.198703348881
4734 1 37.8137496825 6.07140503368 2.23466987204
4716 1 36.7855445125 5.48056009933 0.321301809104
4737 1 36.6945290226 7.66610346667 3.66235817212
13 1 2.48338918042 7.94158394065 2.85017861709
15 1 3.3863105811 8.71038217247 0.63281454617
186 1 1.74480896639 10.314881099 2.35085444719
1 1 0.99540548063 8.65499183638 0.854069201239
172 1 2.56439505174 11.0028095014 0.100827070046
677 1 4.97450396578 7.88622931726 2.75096924448
682 1 7.44016777673 7.86588318895 2.73537525861
681 1 4.225116646 10.152786674 2.34992162469
673 1 5.8338331727 8.64870444434 0.540549685961
685 1 6.67453825071 10.1536731594 2.29860503289
844 1 7.45145038318 10.8923060611 0.0692903759593
843 1 5.0120911745 10.9148057284 0.0970032667223
1353 1 9.88137441299 7.83419294185 2.71533326824
686 1 9.11738346739 10.1380392815 2.29045937255
687 1 8.26416960558 8.61430673326 0.523849886614
1345 1 10.7112636333 8.59930268098 0.527721461814
1357 1 11.5779131227 10.1288754125 2.23838692865
1515 1 9.91365723961 10.8886495221 0.0800396171518
1354 1 12.3189079653 7.85811680836 2.76326378831
1358 1 13.9967990816 9.99513331665 2.30369797545
1359 1 13.1376013463 8.57827187924 0.511759875997
2029 2 15.5161191659 8.49804102402 0.462614415854
1516 1 12.3899029592 10.8852075346 0.0770056473373
2187 1 14.8937538133 10.7710272913 0.0812235598715
2208 1 18.0831664524 7.84184471985 1.14940862252
2699 1 16.5731237385 9.91778334529 2.47038494605
2202 2 18.4000232135 10.2622946008 1.08181583254
2214 1 19.0140698358 11.1615880822 3.27487033098
2721 1 23.0703788345 9.03448773415 1.81617116036
2864 1 21.5798281617 11.3895993977 2.17759051995
2716 2 20.7181324664 9.28600774641 2.97045571689
2859 2 22.5928068462 10.5326020105 0.0646237366892
2865 1 24.0361003928 11.307609946 2.1703509738
3370 1 25.666527115 9.05427699569 1.7638805409
3536 1 26.5204189559 11.3289173924 2.15221618844
3393 1 28.1533124216 9.03029662219 1.72542420217
3537 1 29.0018288172 11.2990961666 2.13090898609
4042 1 30.6513914348 9.01936969886 1.69913647769
4208 1 31.4963472529 11.2257853552 2.19730724721
4726 2 35.5529491623 9.06333845861 0.491571564149
4065 1 33.1327207637 9.16686472459 1.50539336667
4209 2 34.0340133101 10.3578531962 3.18995591138
185 1 39.4900871362 7.873880561 2.85035913054
4732 1 37.493949867 8.28997533045 1.40778514586
4880 1 36.2376751969 10.7517298549 2.00840618151
171 1 38.9149303975 10.2389191057 2.03505972649
192 2 3.54116713991 12.3237650694 1.89856863223
319 1 2.5195748147 14.4457143065 1.6520997433
170 1 0.8915143817 12.5766660027 1.87121674448
4896 1 0.312622880081 15.0347507002 2.36120320308
842 1 5.88479182367 12.4484266485 1.85701318437
846 1 5.01113117865 14.7112355283 1.4479548607
847 1 7.49095127883 14.709463571 1.40913371907
862 1 6.67727062302 13.9604067807 3.62447811548
191 1 4.19728699174 13.9782320122 3.66491861104
864 1 8.30624344981 12.4199677797 1.84193279685
1514 1 10.7493464631 12.403417723 1.82568196584
1518 1 9.92669800353 14.7283842987 1.37709818119
863 1 9.13066472288 13.948160231 3.61100250344
1534 1 11.4990981332 13.9661324117 3.52808332717
1519 1 12.3333671127 14.7215924112 1.34237357171
1536 1 13.2104867684 12.4613967539 1.9521127036
1535 1 15.2858658031 14.0230022345 3.36790565074
2186 1 14.6406288896 14.5737702621 1.21471566471
2226 2 15.4015313896 11.9725427777 1.92362617632
2350 1 18.6119158027 12.7095731702 1.05067492053
2196 1 19.2949004659 15.171566437 1.00039177636
2206 2 16.9879353971 14.5738427787 1.60965773291
2225 1 17.3601736425 12.8458078758 3.3833915538
2191 1 20.0591180493 13.5481500244 2.76584352097
2862 2 20.8573536507 13.0973326945 0.498349650583
2863 1 22.469109554 13.6340156241 2.61598857243
2869 1 21.6727549141 15.2056621412 0.874270874817
2871 1 23.2481156803 12.8656837651 0.412867388231
2870 1 24.1074232778 15.1387533703 0.836099506871
3529 1 25.6928841543 12.8545338896 0.394933402956
3534 1 24.9013451847 13.6105918017 2.58921472678
3541 1 26.5571880871 15.1399675034 0.810570394454
3535 1 27.3357142703 13.6139855955 2.57534176194
3542 1 29.0062798666 15.1214485971 0.804389402439
3543 1 28.1722081849 12.846846761 0.383573127312
4201 1 30.6323887944 12.855887622 0.359464188668
4206 1 29.7203781535 13.5367426696 2.59511695424
4213 2 31.4172915301 15.3072187048 0.699169779928
4207 1 32.0802446446 13.6244739187 2.25257045624
4226 1 33.9983969221 12.119612213 1.79765252469
4214 1 33.9983894422 14.7714564303 0.810595872281
4895 1 33.9892685708 14.1114106551 3.41246706201
318 2 37.985527973 12.0359455112 0.925668133595
4904 1 36.0254725718 13.3661533425 2.04371084988
173 1 38.1126573669 12.7173892272 3.03076805869
4878 1 36.3740360042 15.2804879499 0.362820626563
4885 1 38.5304326451 14.1253954416 0.363004835344
4886 2 37.6149324301 14.9288191089 2.51537111462
5027 1 1.01568706823 15.667544674 0.143047330859
178 2 2.69691861476 18.6205629625 3.09057885999
198 1 3.5000746133 16.2067795897 3.2252801934
310 1 2.30825149688 17.0636043209 1.42682619902
183 1 3.38264797452 19.2734110476 0.620752156994
179 1 1.06543306289 19.1120738869 0.107910783118
180 2 4.52065813826 17.053579202 0.884474906174
845 1 5.91465947362 16.2493671531 3.15903053766
849 1 5.07456388684 18.519953385 2.78323835735
850 1 7.49547988426 18.5344209419 2.79049159642
851 1 6.7821445911 17.0207666247 0.975240045996
841 1 5.8142516523 19.3117667032 0.562207538784
852 1 9.18186803887 17.0414988793 0.91305260614
870 1 8.37246115527 16.2488988947 3.16182305917
1517 1 10.8452351966 16.2656696574 3.12929267575
1521 1 9.90857283082 18.5358088082 2.76779919376
855 1 8.18349106986 19.3036693392 0.584129251724
1523 1 11.5840128205 17.0204364981 0.88532604974
1513 1 10.497639297 19.3318026121 0.607398746759
1522 1 12.2816275524 18.5301177055 2.5834937695
2193 1 13.4052534516 16.0998352873 3.14056694401
2189 1 14.6543289306 18.7259216803 2.35208035158
1524 1 12.9106593633 19.1542925937 0.303785190369
2190 1 13.9918505673 17.0187318272 0.730699664664
2207 1 15.8988394533 16.5380515691 1.97761112564
2194 1 18.4160422214 15.8336209886 3.14921057554
2199 2 18.0316551108 17.4778637045 1.38986849447
2867 1 19.2785153014 18.1817323476 3.50028387426
2215 1 16.9341193313 18.4816650406 3.16585562718
2195 1 16.348422366 18.5044758558 0.249836582873
3007 1 20.2269439981 17.4240832576 1.30104494907
2888 1 23.3295750863 15.911070366 3.04456577187
2868 1 22.5806023073 17.4352678127 1.26504064507
2886 1 21.7179336599 18.1776593183 3.44165825136
2861 1 20.8930064089 15.8851007871 3.10827611138
2887 1 24.1621289708 18.1975518689 3.4349971495
3533 1 25.76917993 15.9039929761 3.01435270591
3539 1 24.994499536 17.4269968541 1.23506478924
3540 1 27.4402184094 17.4184598132 1.22349928771
3558 1 26.5887976633 18.2006427493 3.43057746963
3559 1 28.9737874437 18.1332480252 3.36107025739
3560 1 28.2049372337 15.8747498823 2.99982298905
4205 1 30.6195859315 15.7830041665 3.00916510943
4211 1 29.9443871045 17.3883880313 1.20481951783
4230 2 31.3051390361 17.9907901034 3.48000843013
4212 2 32.7714275134 18.2583915349 0.96422020945
4232 1 33.0188870136 16.2295301435 2.66309726437
4883 1 34.7906651909 17.2131294255 0.978868686964
321 1 35.4785596698 15.6701066823 2.54254806342
4897 1 35.4647679378 17.7954429663 3.53433469197
190 2 39.552095868 17.4040978839 1.4859654716
4884 1 37.1273700737 17.4065757857 1.90560764026
5048 1 36.3089135699 19.0382366004 0.199511884801
181 1 1.61473376757 20.7270030792 2.18645683511
360 1 3.45842103293 23.0648826138 1.93640117066
340 1 2.6175965285 21.5810832539 0.148394458413
353 1 1.09690153319 23.0972681866 1.77947286985
182 1 4.16446121417 20.7740307448 2.36537112863
853 1 6.61909754742 20.8159348454 2.34631779294
1010 1 5.87092933521 23.1019666673 1.94796769781
1012 1 7.4475016329 21.6137774855 0.1326653693
1011 1 5.01563808725 21.5972562889 0.193485065253
854 1 9.02001046645 20.8545338228 2.37367897241
1032 1 8.29287116179 23.1427427698 1.92109204867
1683 1 9.86536893924 21.6732972499 0.184888378199
1682 1 10.7314792373 23.1978550189 1.94163437179
1525 1 11.3067204891 20.9028903438 2.23074515423
1543 2 13.4697936395 20.7864396918 1.84356708961
2369 1 12.3346712668 21.6603651272 0.0815476209098
1704 1 13.2749642733 23.1863476493 1.94806812404
2192 1 15.1945228651 20.796430281 3.57602674881
1527 1 15.81879758 22.9118472905 0.711891659532
2197 2 16.4431006838 20.4786682046 1.65060632341
3026 1 18.6164814804 19.7099877275 1.6934501512
2376 1 19.4013005758 22.0180608663 2.3186476836
2359 2 18.2820606698 23.0410375399 0.611636396993
2354 1 16.8135103205 22.7242351065 2.84294739394
2866 1 20.9861614096 19.7551838293 1.73822457114
2889 1 23.3973554778 19.7210522918 1.65947990688
3032 1 21.7810786686 22.0269931556 2.18541675414
3012 1 19.9892072516 21.1731690183 0.0179726598054
3033 1 24.2086076902 21.9925413739 2.06812172729
3538 1 25.8187621221 19.7168261698 1.61966034618
3704 1 26.6212316682 21.9592510747 2.12723110833
4210 1 30.7269277491 19.6621597618 1.68478708739
3561 1 28.2686286624 19.6885602116 1.66035459366
3705 1 29.035565304 21.9310252087 2.18025616576
4376 1 31.4047592091 22.0368127162 2.07592766312
4233 1 34.5863994492 19.4915553424 1.9162738492
4377 2 33.7105511581 21.6209541058 1.80681845995
177 2 39.0493220222 20.0813016689 3.25846679773
5037 1 36.8367753351 19.6544426072 3.00591977145
169 1 38.4692062482 19.5724665898 0.986507413881
5046 1 36.1241701965 21.4507788424 1.63030827111
4882 1 38.5340697894 21.76777149 1.90884687773
343 1 2.89966528444 25.3424176259 1.35861490341
366 1 3.09415051199 26.8950717606 3.22482295069
5066 1 0.755582689263 25.5343951106 1.88321020742
1013 1 5.72842134665 26.9710560126 3.30415651769
1014 1 5.14782929548 25.3995561429 1.54675142748
1015 1 7.48385136724 25.4286681744 1.51417591252
359 1 4.17922437985 24.6583950408 3.69747181119
1038 1 8.21176076375 26.9864972393 3.26305363621
1685 1 10.6735082512 26.9850269395 3.20192775652
1686 1 9.86319476529 25.441499172 1.4672382884
1031 1 9.05613795019 24.695707258 3.68485112175
1702 1 11.4877663157 24.6259377091 3.69327118245
1687 1 12.2525811295 25.4381877461 1.49937895064
1710 1 13.1288983768 27.0175691572 3.23190519008
2357 1 15.632573122 26.755752903 3.27297276188
1846 1 14.5873391074 25.390827298 1.41065481451
2517 1 16.9014499348 25.0237162775 1.22909282313
2505 1 19.4111343143 25.1847214844 0.659140560397
3046 1 18.2325510791 26.8156323429 1.99812330791
2374 2 17.4365913987 25.0018426994 3.55053583403
3030 2 20.3657220315 24.2123140665 2.81760134243
3039 1 23.3294435587 23.494492694 0.392617031291
2364 1 20.8992081333 23.4313251193 0.42151368488
3031 1 22.5857974526 24.3111847402 2.56078137994
3056 1 23.2941220711 26.5753680703 3.04615467334
3029 1 20.7589166419 26.5270732929 2.95884636272
3037 1 21.6841856199 25.7687587868 0.775495777892
3038 1 24.1069681359 25.7704419613 0.847358625303
3697 2 25.8056801594 23.5374004161 0.511982862438
3701 1 25.7381095247 26.5569694683 3.05203321574
3702 1 24.9513578554 24.2784377054 2.62943561113
3703 1 27.3554072574 24.2650595056 2.61541217778
3709 1 26.5202658557 25.8109122296 0.844837469434
4369 1 30.4876110294 23.5151698103 0.369179190379
3710 1 28.8970654338 25.7918145188 0.814633538397
3711 1 28.1316938445 23.4671096854 0.406971016641
3728 1 28.15987296 26.547944702 3.04543796835
4373 1 30.5815959645 26.5689618792 3.02453853289
4374 1 29.7216469034 24.2661919662 2.60857861533
4381 1 31.2245409114 25.8634502774 0.728271297466
4375 1 32.0006589756 24.4620529621 2.58305274794
4382 1 33.5651833861 25.8165778094 0.599942626357
4400 1 32.9663858724 26.6619692987 2.93116232633
5087 2 34.2247983924 24.6410130524 2.33495121041
5206 1 35.3783127427 26.6173134485 2.78568330177
4383 1 32.8040341117 23.5107743357 0.363779285593
5201 1 35.0736209443 23.3897224704 0.413612697122
5041 2 39.431360429 27.1269838604 0.669398019987
5045 1 36.3419485675 23.9271286109 2.74343586943
5055 1 37.346111261 23.3742630744 0.639850377812
5192 1 36.0024935697 25.5447328486 0.541152402731
5049 1 38.7025645186 23.9446175557 2.68753415149
5070 1 37.7802326163 26.0643761321 2.00213087803
5204 1 38.9872552275 24.7625256106 0.0620124779329
347 1 1.86491896872 27.9155813555 0.9431740057
346 1 2.40771886914 29.2210294269 2.91192514276
351 1 3.27236106008 29.7914389788 0.471848887863
341 1 0.533400149543 27.5479971132 3.15158157864
507 1 1.11216625407 30.5806802524 1.29877765539
348 1 4.24127978751 27.628642394 1.21806865222
1009 1 5.69280620822 29.962177353 0.647390002872
1017 1 4.84632307142 29.2641372306 2.85205342886
1018 1 7.33083678697 29.2633483348 2.81112105937
1019 1 6.62782383575 27.69791497 1.08609160341
1020 1 9.03151516161 27.7180833485 1.03393806336
1023 1 8.16002832443 29.9877624736 0.609398784963
1681 1 10.6170490096 29.9825016018 0.562197188331
1689 1 9.80379369708 29.2651073406 2.78169110762
1691 1 11.4688450299 27.7310495106 1.00801585447
1692 1 13.8888591451 27.7724984535 1.04587522238
1690 1 12.2728606408 29.2841811126 2.77587429705
1695 1 13.1530173142 30.0100453792 0.573407680396
2361 1 14.7659679602 29.3893273431 2.7433390724
2353 1 15.9317746676 29.8818903702 0.317361705672
3035 1 16.1558507082 27.5561334785 1.00163055454
2362 1 19.4064386376 28.8414075841 3.0453527505
3198 2 18.0692496177 28.7296558704 0.644747990366
2366 1 17.1018660951 28.903337622 2.74847217074
2367 1 18.6843038676 30.7532964804 1.33276688832
2381 1 20.1608323751 27.8803012258 1.01257578621
3057 1 23.3848724439 30.2031883969 1.65215298458
3034 2 21.0412836667 30.1685153159 1.74210518612
3054 1 21.7647881961 28.8053827729 3.47410683044
3036 1 22.5176408476 27.9928517943 1.25393548248
3055 1 24.1667462932 28.826072948 3.46335202232
3706 1 25.748808545 30.3607577667 1.72281656132
3707 1 24.9328001851 28.0515256512 1.27331221791
3708 1 27.340337989 28.0798435246 1.2666549849
3726 1 26.5560889032 28.8429239872 3.48007004453
3729 1 28.1616430526 30.3845011166 1.70753884608
4378 1 30.5708238666 30.3735610878 1.63010698943
4379 1 29.7375278797 28.0876681161 1.23400749793
3727 1 28.9468333037 28.8283130523 3.45564911031
4398 1 31.3661253598 28.8694226662 3.38840914605
4380 1 32.1098901389 28.1416437075 1.17825127814
4401 1 33.049745708 30.4285302448 1.62021541887
5051 1 34.3881185286 28.0313265151 0.936026878768
4399 2 33.833821206 28.8008496398 3.16643882251
5050 1 35.5360917366 30.0116362729 1.49454344908
337 1 38.5095937385 28.9415407964 1.5153267028
5062 2 37.1896764843 30.2243104055 3.01475883299
5195 2 36.5429184549 27.7840524018 1.17848615371
349 1 39.3727523876 29.7722458178 3.65038148434
528 1 3.27322761456 33.8921752013 1.80911975366
5222 2 1.31841770973 31.4444084165 3.34784430239
521 1 0.935839647516 33.3431335793 1.82108404802
350 1 3.8154661619 31.4682869801 2.30763177109
508 2 2.50065213927 32.1644972363 0.200574876936
1021 1 6.3830199218 31.512117718 2.35617204584
1178 1 5.6293658042 33.7692494798 1.85270608242
1180 1 7.2418016946 32.2293739652 0.143746304154
1179 1 4.79370060976 32.1615784287 0.100264919357
1022 1 8.85893742232 31.521535337 2.35218267368
1200 1 8.06276688268 33.7964845441 1.85947911693
1693 1 11.2662655351 31.5081094666 2.34074386994
1850 1 10.4959680349 33.7944607456 1.85839252744
1851 1 9.7128048006 32.2485525746 0.128666647139
1694 2 13.5161848427 31.612981001 2.34966697419
1872 1 12.9655806063 33.8021973616 1.88756794678
1852 1 12.1769314517 32.2532330637 0.133839806216
2523 1 14.6751358948 32.1694020367 0.154617514763
2522 1 15.4583050032 33.6623431496 1.93197195741
2365 2 16.5970236933 31.4072763757 1.96098872653
2688 1 18.1611981032 33.5861140706 1.71478299657
3200 1 20.3645146076 32.4292808955 1.8099497688
3207 1 23.1997271554 34.2548173715 0.309706591763
3194 1 20.6856944422 34.4366857999 0.397739931033
3195 1 22.3018088444 31.9206411708 0.193470703711
2550 1 20.6765552533 34.8805061763 3.01128921715
3199 2 22.2481283134 33.5419410809 2.231214766
3053 1 22.470380624 31.2326825919 3.63361547863
3201 1 24.1694911212 32.5110647485 2.1392932929
3865 1 25.625828753 34.176885244 0.404890962879
3872 1 26.4910357815 32.6827948686 2.14945662047
3870 1 24.6705030763 34.9275533877 2.57636186148
3873 1 28.8801892583 32.7110091872 2.10575005226
3879 1 28.0645802995 34.2194947209 0.36736136477
4537 1 30.5046415444 34.227911831 0.342545993964
4544 1 31.2651924267 32.6640659127 1.98844914073
4545 2 33.7263004365 32.8434460911 1.91565065142
4551 1 32.9574190663 34.2569445499 0.319638793587
5209 1 35.4464502008 34.1180385589 0.408934581252
4543 1 32.1804557472 34.8933110677 2.61132502569
5202 1 38.5838833437 31.8716982623 1.91616745239
5216 1 36.0564389113 32.3534724495 2.03640578697
5362 1 37.9033139344 33.9031169783 0.619266140688
5215 1 37.1690893281 34.36744579 2.86731346028
511 1 2.3798948426 36.0608361585 1.49959266906
534 1 3.1670474031 37.6479679747 3.14786355457
510 1 1.70750952023 38.4647281776 1.06338478847
506 1 0.630910284144 37.7829726514 3.24996901599
546 1 1.55756507097 35.4177389986 3.62803170443
5223 2 0.800200950908 36.4970627116 0.0359505728077
527 1 4.02510207169 35.3712295102 3.58281553004
1181 1 5.66625750915 37.6158640469 3.1007345293
1182 1 4.79484115647 36.0841506339 1.32211281336
1183 1 7.2655893921 36.0881701212 1.36968270274
1187 1 6.50987588122 38.3612437791 0.895985859923
516 1 4.06854588354 38.3580297183 0.876373482798
1198 1 6.47259345535 35.3434506854 3.5604592497
1188 1 8.93758939693 38.3339998539 0.955166992506
1206 1 8.1192630744 37.6085767936 3.1384933193
1853 2 10.6004642247 37.4986926323 3.02774560102
1854 1 9.68939838232 36.0466228366 1.34338852642
1859 1 11.3786490371 38.3294573962 0.894709188019
1870 1 11.3282345712 35.2837679245 3.61404850339
1199 1 8.90858783741 35.3429271987 3.57997975822
1855 1 12.1267091065 36.0355678172 1.39472752633
1860 1 13.8161426108 38.2536203755 0.935467765166
1878 1 12.9673755373 37.5539839786 3.14417699759
2526 1 14.5573135099 35.9523470209 1.45242489791
2525 1 15.3737940005 37.5318259019 3.15835454423
1871 1 13.7301992825 35.293411577 3.65543025494
2527 1 16.9796155064 35.8699938652 1.49917289636
2531 1 16.238411933 38.1506270841 0.889375424318
2682 1 19.2871993527 36.3720962314 1.39166717115
2530 1 17.7578506366 37.4874544891 3.22159384191
3215 1 18.4553597097 35.2604948905 3.44372696944
3197 2 19.4656044665 38.806944646 2.17329834936
3205 2 21.6489118114 36.418666071 0.990774812695
3224 1 23.0456618612 37.2727740657 2.98429131863
3214 1 20.5421241318 37.248304303 3.33568908609
3871 1 27.213390649 34.9771166603 2.57793454454
3206 1 24.0433392186 36.5068176023 0.802972023951
3869 1 25.5432111222 37.2546374204 3.01430173675
3877 1 26.4175737469 36.4991980937 0.836923519856
3875 1 24.7827445886 38.8256784603 1.3067932955
3876 1 27.1922333377 38.81035199 1.2955059575
4542 1 29.7109132572 34.967157975 2.57652687775
3878 1 28.8586868987 36.5061465603 0.831970245323
3896 1 28.0210485183 37.2691798365 3.02932590201
4541 1 30.4690322608 37.250856704 3.03340354941
4549 1 31.3162665045 36.4664731145 0.848046610829
4547 1 29.6082500597 38.8098436139 1.29442010144
5214 1 34.6693931521 34.9790368828 2.54793771824
4550 1 33.8080893354 36.4952233098 0.837958294982
4568 1 32.8792985603 37.217782567 3.00087396809
5233 1 35.2822740153 37.3109306991 2.87727017383
4548 1 31.9827525516 38.7940123553 1.27569066047
5239 1 39.2993432235 35.4552637647 1.97170758864
5217 2 37.6715518146 36.9469663129 2.8777144177
5213 1 36.5309268611 36.1782679619 0.956732317474
5220 1 36.6760432277 38.7379173057 1.29338494805
514 1 2.54321826162 39.9692370301 2.71937351686
517 1 1.69124572541 42.2078676832 2.17032679719
519 1 3.32227564026 40.6898227047 0.531622498014
505 1 0.0841166703261 40.3669659502 2.68327144384
515 1 0.885619969914 40.6628679366 0.361718396245
518 1 4.13259636805 42.2462086892 2.22671824537
1177 1 5.74334163843 40.6588253894 0.44128619126
1185 1 4.94077671762 39.9177612475 2.63847417556
1186 1 7.35507119324 39.888412201 2.66091642352
1189 1 6.55725041821 42.1921125964 2.23567375302
1190 1 8.98181789998 42.1427430627 2.25355377859
1191 1 8.18464514983 40.6218905749 0.469136694617
1849 1 10.6349044321 40.6347457719 0.543668990839
1857 1 9.76082489691 39.8399527949 2.70521596294
1861 1 11.4077242813 42.1290055073 2.28962745608
1858 1 12.1756960947 39.8246105177 2.69547972903
1862 1 13.8658344884 42.1059271174 2.24765604161
1863 1 13.1069194769 40.5649854871 0.525474985187
2529 1 14.6080592168 39.7816494801 2.64490348249
2533 1 15.6497192011 40.5861415049 0.606271584113
2034 1 16.3728601558 42.3198232295 2.33800757615
2549 1 17.0123448031 39.7042123127 2.55299795403
3202 1 18.4358098168 41.0893355941 1.48595088698
2535 1 18.9386441217 39.0593729953 0.0977189537116
3204 2 22.5527074035 39.2717066072 1.31334833816
3225 1 23.2109841443 41.3264729888 1.80467920806
3222 1 20.7453789576 41.0590027099 1.80823266479
3203 1 21.5477844718 39.5950031128 3.53473488648
3223 1 23.9637470464 39.619732952 3.49246661964
3874 1 25.6353874872 41.1690325665 1.76443520243
3894 1 26.3958836605 39.5792584775 3.48806349689
3362 1 24.7636308284 42.6968723605 0.0186202650132
3363 1 27.2012054661 42.6522298793 0.010063870926
3897 1 28.0392811029 41.1150685847 1.75538228797
4546 1 30.4620675331 41.119444808 1.74420035202
4566 1 31.2458602881 39.5525672788 3.48922207213
3895 1 28.8299225737 39.5665132974 3.49953310886
5219 2 34.2386615152 38.8669561675 1.08705975273
4569 1 32.8825202733 41.0981817832 1.70950171001
4567 1 33.6235274003 39.5171358133 3.43146319224
5218 1 35.3567856958 41.0717529062 1.66340107715
513 2 38.9450521302 39.0766209035 1.00915189554
524 1 38.8533170605 42.6709275827 2.21929198769
5238 1 37.7568259003 41.000973937 1.15392178681
5232 2 35.9344763511 39.5163327101 3.51918245176
5237 1 37.0433731727 41.5026122293 3.53705786427
17 1 0.276434311558 1.12825073775 4.07107184027
18 1 2.52854741295 1.06022547412 4.03152553768
42 1 3.24093207412 2.55830487442 5.80359067691
35 1 0.862514541388 2.74147629837 5.96091536723
531 1 1.39016127684 0.23613492912 6.27784647162
36 1 4.04468791097 0.255809848904 6.22149285843
689 1 4.93180869391 1.02592998904 4.02614829229
688 1 5.71002364822 2.53697775565 5.79899508406
690 1 7.34274228233 0.990072229583 4.0251225111
707 1 6.50538640319 0.217071430768 6.22635788318
714 1 8.15139320152 2.50898911519 5.79609128001
1360 1 10.5720415698 2.48063278188 5.78043664461
1361 1 9.75234933639 0.951398664322 4.02019620649
708 1 8.9396125271 0.190321038747 6.22339457877
1379 1 11.3786211951 0.165165847302 6.19784625045
2033 1 14.4660404723 0.984396791485 3.91304220729
1362 1 12.1443618739 0.9347328416 4.02134889394
1386 1 13.0037120834 2.39993786109 5.73752550931
2036 1 15.4105796868 2.60340465728 5.94865682741
1380 1 13.992214956 0.135127105651 6.17134906242
2058 1 16.388042187 0.551919407807 4.96650189279
2694 1 18.2997416399 1.27105272777 3.89371631683
2038 1 17.8849850612 2.27244941726 5.88680635244
2051 1 16.5266231653 0.776119469933 7.19657361395
2704 1 19.0043528957 0.0581348560049 6.05920835683
2040 2 19.3428026985 3.82157962235 4.91408327333
2534 1 20.6260345204 1.61916895433 4.42628057178
2692 1 19.9657259051 2.41610530392 6.84756319916
2707 1 22.41050976 2.32218652915 6.61391993688
2715 1 23.1330531818 1.54646700208 4.4055729601
2713 1 21.6208231493 3.82849566274 4.84076675314
2182 1 21.5134744019 0.0973656480139 6.17458592005
3364 1 25.60777685 1.48658437004 4.40652480524
3378 1 24.8478957781 2.28726565628 6.59191229727
3379 1 27.2940360609 2.23772398319 6.6045532972
3385 1 26.4657340505 3.76214003403 4.84011599066
2714 1 24.0263355301 3.81226388326 4.8322647276
2709 1 24.0048987508 0.0283517939831 6.1643755546
3386 1 28.8957272618 3.72633164002 4.85010477245
3387 1 28.0440519516 1.4504202054 4.40274811387
4036 1 30.4661622724 1.37774060971 4.416177972
4050 1 29.765517192 2.197404159 6.61650463001
4057 1 31.2668649693 3.5987282691 4.97415329895
4708 1 35.1571304253 1.22007542163 4.09369505801
4051 1 32.293822626 2.09561328493 6.679509479
4059 1 32.864578791 1.29162077802 4.41799303969
4722 1 35.0593763981 2.23161040493 6.3064631819
4058 2 33.5913428067 3.39607497013 4.94460307183
4729 1 35.9526889822 3.518430883 4.29744072467
4725 1 37.3801749293 1.55727912049 4.18225849136
4731 2 38.6048652576 1.33693301404 6.04158505843
6 1 37.532899427 3.48719004922 6.08615439078
10 1 1.60627016196 7.10924960048 5.02962783783
21 1 2.45141286421 4.83391152959 5.47679611725
47 1 3.58453689694 6.33174917417 7.19755334999
4730 2 0.0267113581251 4.79719750325 5.12933620916
4751 2 1.43155123749 6.34484954508 7.345411603
29 1 4.14544981648 7.14149657244 4.93961295501
692 1 4.91996126792 4.8498528872 5.38098247294
693 1 7.39687205575 4.82321796278 5.37533021189
700 1 6.63579476018 7.11531520282 4.93667391363
691 1 5.91792886007 6.34310112112 7.15148064512
701 1 9.11217116782 7.11708491168 4.94587348514
719 1 8.35244337102 6.33735948549 7.13531212711
1363 1 10.8145632157 6.31935072476 7.14290754922
1364 1 9.85324621448 4.81570970847 5.38174491196
1372 1 11.5510892601 7.08269582125 4.96926987933
1365 1 12.2833784851 4.76918917488 5.3771414248