ITEM: TIMESTEP
4000
ITEM: NUMBER OF ATOMS
5376
ITEM: BOX BOUNDS pp pp pp
0.0 39.5600404449
0.0 42.7297273569
0.0 37.0050293879
ITEM: ATOMS id type x y z
2 1 0.960062156807 1.85925040421 1.82517983612
24 1 3.3856065067 1.68472164838 1.82097399005
22 1 1.85937239359 3.25385891042 3.58056035564
674 1 5.8115573492 1.72177982984 1.83619706357
694 1 6.65588248161 3.30090212261 3.60024783743
676 1 7.40437142208 0.131596639904 0.084380107545
675 1 4.9960100802 0.105015199401 0.0804404996997
23 1 4.2579873393 3.29976849621 3.57500169854
696 1 8.2120251326 1.72501783342 1.84449894763
1346 1 10.6067113142 1.73461335124 1.86592315131
695 1 9.06322883814 3.28354871077 3.60703809171
1347 1 9.82033653831 0.147390516862 0.0942052461265
1366 1 11.475394504 3.29193924388 3.60859512589
1368 1 13.0063047882 1.75062366365 1.84337375059
1367 1 13.8784626433 3.27775246603 3.57073266886
1348 1 12.2644498645 0.11129909019 0.121395625113
2018 1 15.415566635 1.86225608254 1.96071957944
2019 1 14.7741347441 0.166794120465 0.0966910921284
2023 1 16.2991372795 3.44969090865 3.5624739757
2020 2 18.5081417896 1.09654727613 0.490408198245
2694 1 18.2471209633 2.45187239901 2.26519595279
2040 1 20.2757966705 3.02704913139 3.17289043308
2695 1 22.4472546286 3.07460757188 2.56218417261
2696 1 20.7751405949 0.903959015632 1.91860425792
2703 1 23.0493792494 2.24326153751 0.368119075273
2689 1 20.4940364109 2.4871683211 0.336575149808
2697 1 23.955471714 0.751004768251 2.08920840749
3361 1 25.5499175045 2.17164455568 0.389977631052
3366 1 24.8478260501 2.94898634754 2.61147730898
3367 1 27.2721601493 2.90780341952 2.60597037482
3368 1 26.3681269264 0.627631820134 2.15460549642
3369 1 28.8064977687 0.609642879221 2.15202595967
3375 1 28.0101624974 2.13295282652 0.409052995078
4033 1 30.4362513191 2.14728745143 0.380523722244
4038 1 29.708791385 2.89395534474 2.60301821601
4040 1 31.2105897992 0.6033896853 2.15992210402
4039 1 32.1379807324 2.8626868597 2.60223840006
4041 2 33.5236345053 0.683061084787 2.08018703311
4047 1 32.8471362667 2.140699157 0.344257687931
4710 1 34.62078423 2.93357059355 2.53122893269
4705 1 35.2565737176 2.18064538983 0.239163218376
4711 1 37.4554740054 2.72979620753 1.37913463335
4712 1 35.9529467372 0.600015868601 2.04481080777
524 1 38.4885050861 0.647295730043 1.9433926934
4729 2 36.639248769 3.66935406117 3.28090063639
6 1 39.049415319 3.14768377741 3.35695161775
165 1 2.72865477192 3.99186099824 1.43402529058
7 1 3.4800733637 5.63037601542 3.14164384321
11 1 2.00674966658 6.23287900114 0.962362602845
20 1 1.08800143078 5.47908996611 3.16149371315
5 1 0.305153403527 4.13636957444 1.23579360645
678 1 5.0919034808 4.05858418826 1.40514225852
30 1 5.88989121153 5.60658465556 3.17475248469
679 1 7.47116252041 4.04415895142 1.40179101946
12 1 4.35536225271 6.36094027887 0.987968403014
683 1 6.71697300742 6.35013139019 0.975506479945
1350 1 9.85576016758 4.02638506899 1.37759834182
684 1 9.09424929598 6.31897761745 0.949480904719
702 1 8.2820604773 5.58609081346 3.17520669382
1349 1 10.6896884302 5.57395449929 3.14779498513
1355 1 11.4989216005 6.31399485447 0.906351397648
2022 1 14.5542928541 4.04173841427 1.35989134694
1351 1 12.2289858838 4.03962057262 1.37509951541
1374 1 13.0873942617 5.60162685354 3.13468045257
1356 1 13.9184349891 6.34170919758 0.83731023291
2021 1 15.3813661127 5.65213778085 2.97378919867
2167 2 16.7954790054 4.07489861211 1.19117936849
2181 1 19.0707311704 4.83093543972 1.07608071258
2208 1 16.4497486568 6.34999672108 0.953886028379
2183 2 18.595997184 4.56258907079 3.55482308281
2030 1 19.0426660862 7.70281212644 0.305436709261
2026 1 16.6700288949 7.66766370185 3.49240444867
2028 2 20.4710646976 6.50727445781 1.43947705833
2693 1 20.9852959015 5.2571070793 3.17523168746
2700 1 22.6439319298 6.74808496133 1.28438729402
2701 1 21.5523267246 4.50875278078 0.843661419571
2720 1 23.4126642778 5.22587467567 3.06074867152
2718 1 21.6847462796 7.62916070667 3.4228372954
2702 1 24.0189921554 4.47857050767 0.806115013539
3365 1 25.7798485406 5.20777533421 3.0628544475
3371 1 24.9696644314 6.72886966881 1.30955504844
3372 1 27.3643637631 6.72424714626 1.29083314483
3373 1 26.4548673036 4.44169790905 0.861260688769
3390 1 26.5832532977 7.50962578664 3.48753821009
2719 1 24.1320261246 7.53985433325 3.47530469953
3374 1 28.8964194116 4.43132061946 0.834154014596
3391 1 29.013685361 7.50099279142 3.47732653292
3392 1 28.1788067585 5.19558536785 3.04493311098
4037 1 30.5941639107 5.18166162998 3.02995849636
4043 1 29.7773217621 6.73373107506 1.26922756446
4045 1 31.3106557739 4.42208205295 0.815844775317
4062 1 31.415655505 7.4774049456 3.46938396843
4044 1 32.1558987848 6.73646210452 1.22058457598
4046 1 33.6718911282 4.35328897592 0.712996297209
4064 1 33.0489810905 5.08160561023 2.95886128539
4715 1 34.4971339286 6.60805561439 1.13630000245
4063 2 33.6664314789 7.25614404403 3.18305340146
4709 1 35.6406388676 5.81961657111 3.28323556513
9 1 39.3585591262 6.8529797791 1.68564346073
4717 1 35.9748480534 4.54450386551 0.970848013258
4736 1 38.1474701669 5.18910613601 2.6480889671
4716 1 36.7832980638 6.8333543853 1.09189052176
4734 1 37.5595977798 7.35144856293 3.26829491389
4870 1 38.1205107595 5.12832131246 0.05267419842
13 1 2.40704268529 7.89985232334 2.70699345087
15 1 3.40510507506 8.59736293766 0.554413472533
1 1 1.03977284098 8.44150040782 0.509362198248
172 1 2.47226629979 10.9272310963 0.331897183124
681 1 4.15783262632 10.1275041539 2.32860501373
677 2 4.96944248506 7.90604315863 2.65411623438
682 1 7.44566637105 7.85385519756 2.75893338802
673 1 5.84103804601 8.64628954458 0.532115534669
685 1 6.61665153292 10.1216682533 2.32660796308
844 1 7.37743091935 10.8858117976 0.117288782815
843 1 4.91831791126 10.9462959326 0.169492442238
1353 1 9.86878416204 7.84517979216 2.71125852425
686 1 9.06195455406 10.1173917333 2.2994353531
687 1 8.25068738104 8.59740653185 0.544466296682
1345 1 10.6795001632 8.59014360805 0.493259415219
1357 1 11.5142831858 10.1178929319 2.25083594536
1515 1 9.80068310642 10.8610849872 0.0629853771951
1354 1 12.2919883559 7.83749640974 2.66018963242
2025 1 14.6286852331 7.96141161713 2.5243554091
1358 1 14.0254759258 10.3535234531 2.4048933813
1359 1 13.1087637596 8.62954306588 0.47643801258
1516 1 12.211544071 10.8791916431 0.0598892346037
2187 1 14.5670123939 10.8491328822 0.0768179979303
2029 1 15.4546492175 8.6584471801 0.377285127395
2226 1 16.3999718616 9.93975677381 2.20111428422
2699 2 18.5081050847 8.50380784104 2.5286684792
2202 2 18.2696082557 11.5075742924 2.51071909513
2698 1 20.1221978976 10.0763478408 1.27626497138
2721 1 23.1406366531 9.10351297715 1.77398224449
2864 2 21.7805289786 11.3500883511 2.33715338256
2859 1 22.3499072623 10.5631026878 0.0187721452245
2865 1 24.183004062 11.2975719119 2.2033258978
3370 1 25.7049685597 9.03649567385 1.74816048487
3536 1 26.6082932017 11.3098604173 2.15155109691
3530 1 24.8621373474 10.5166338232 0.000904894787556
3393 1 28.1930155915 9.03259871293 1.7167259736
3537 1 29.0602756621 11.3441700431 2.13247391438
4042 1 30.6754793833 9.0522817851 1.69142414393
4208 1 31.5311687701 11.3449468206 2.13387605763
4065 1 33.1410075916 9.11662903087 1.66446163177
4209 2 33.9130283611 11.5645153577 1.55788104325
4732 2 35.4300119302 8.82072269817 0.787086577366
4726 1 35.6013209556 8.50970781505 3.05770529249
185 2 39.5499598115 8.81773942752 2.80672313995
171 1 38.7962030954 11.0254669718 2.19319004495
4737 1 37.793427035 9.05625330123 1.18181803669
4880 1 36.2773267573 10.8313668372 1.87039882922
170 2 1.27060818229 12.0937554354 2.3101109076
192 1 3.57854496987 12.5103002433 2.13662025109
319 2 2.86702052866 14.9485959817 1.52339640352
4891 1 2.08642118636 13.7894979552 3.616084177
842 1 5.87373152428 12.4247471776 1.92463799888
846 1 5.10660469014 14.7344046072 1.50490033889
847 1 7.47813841298 14.7173663708 1.44381836942
862 1 6.79631797024 13.9593437409 3.6581780376
864 1 8.25211609607 12.409299475 1.8754495422
1514 1 10.6418507164 12.3678850293 1.8067575831
1518 1 9.84305236634 14.7092370203 1.4278893933
863 1 9.14313423215 13.9553824451 3.61752870039
1534 1 11.4482105755 13.7298857527 3.64410192464
1519 1 12.1242039638 14.770678256 1.17471229654
1536 1 13.0549742211 12.4831419306 1.78504578203
2190 1 14.5120825208 14.7910292987 0.754147190516
1535 2 13.3023636282 14.7061150335 3.03607816827
2186 1 15.7414026037 12.3783128043 1.70499885661
2189 1 15.6417038627 14.6232231735 2.91594429192
2350 1 17.6892936145 13.5747113714 2.83557989822
2196 1 19.3082153753 15.0491179321 0.998005159383
2206 1 16.9780054519 14.9178568023 0.946677708976
2351 1 18.2839062415 12.8846858246 0.539241105539
2191 1 20.0817239493 13.4536139159 2.79550425429
2862 1 21.0390588839 12.9173557438 0.649313956072
2863 1 22.5613936762 13.6023259122 2.68613413215
2869 1 21.6980030397 15.1046589484 0.940008628341
2871 1 23.3610578456 12.7861252199 0.47398870156
2870 1 24.1368215353 15.068943278 0.919080997072
3529 1 25.7521663319 12.8131708484 0.420752474722
3534 1 24.9922176992 13.5893367282 2.62265009123
3535 1 27.4309635441 13.6202649062 2.57880529579
3541 1 26.5399458681 15.119141682 0.82196539866
3542 1 28.9750615844 15.1252100905 0.791281007258
3543 1 28.1641437623 12.8379832776 0.37719925064
4201 1 30.5672480231 12.8418703981 0.352117441737
4206 1 29.896329578 13.6613275467 2.54734382705
4213 1 31.4453855149 15.1083145728 0.745860301752
4207 1 32.4072301187 13.6702573849 2.46523237049
4215 1 32.9170805097 12.9115950307 0.0931707212915
4226 2 34.8847817304 14.4889481173 2.51765485354
4214 1 33.8776203902 15.3330438132 0.639034593104
4878 1 35.4240825059 13.1713989879 0.47504609387
173 1 38.9883731083 13.7100782246 2.72813558139
4887 2 37.4652865979 12.6778866739 1.51597928055
4885 1 36.9595444297 14.9790409967 1.51802140171
5027 2 39.5119398126 15.5209930736 1.47163455833
178 1 2.30290712763 18.4499698639 2.98247275115
198 1 3.48996210763 16.3053760247 3.30497958051
184 1 1.12236012938 16.0025832987 3.37085925606
183 2 3.4232124738 19.2500217006 0.724576215988
310 1 1.74555772286 17.091107053 1.0062884931
179 1 0.940599705375 19.4067190764 0.896431781374
180 1 4.20658938011 17.002742888 1.08192397046
845 1 5.95541200722 16.2680261274 3.27636352043
849 1 4.98278022362 18.5045391363 2.84070641163
850 1 7.47961463107 18.5393413534 2.80011339162
851 1 6.65149235246 16.980887935 1.04960446315
841 1 5.8553497145 19.243782541 0.646796107082
852 1 9.12381470717 17.0034580802 1.01632157753
870 1 8.41198571469 16.2634795614 3.20689157518
1517 1 10.9611815416 16.2403020502 3.08989433559
1521 1 9.94797991902 18.5371860369 2.73271939085
855 1 8.25284288873 19.2722336496 0.594601049132
1523 1 11.6348562513 17.1556025275 0.787270521246
1513 1 10.6215070976 19.3732347877 0.537419746668
1522 1 12.3293302719 18.6848289942 2.67411193488
1524 2 15.4945603726 16.7206732856 1.40375275448
1542 1 13.6052440071 16.8122970427 2.70918677715
2193 1 15.0200171423 18.7534301686 2.33175798617
2194 1 18.5095158696 15.671745018 3.24102653821
2199 1 17.6643041507 17.3174291353 1.69799370255
2215 1 17.1558441104 19.1755988305 3.56309596999
2867 1 19.1990931042 17.9796886049 3.67064995635
3007 1 20.0487376658 17.3466480215 1.44567499917
2888 1 23.3415333098 15.8703623983 3.07216873365
2868 1 22.47091962 17.3719035943 1.34931923765
2886 1 21.6464481174 18.1103436875 3.5415923453
2861 1 20.916014794 15.7829667317 3.13463951652
2887 1 24.0948044547 18.1685287752 3.43324286349
3533 1 25.7697983396 15.8849934664 3.00371924388
3539 1 24.8630004602 17.3983254913 1.24384342509
3540 1 27.2637025644 17.4287160031 1.23505455643
3558 1 26.5383900175 18.1858249813 3.43470849824
3559 1 28.9823544374 18.2146066764 3.41067940118
3560 1 28.2021269076 15.9287164191 2.98414772619
4205 1 30.6430656695 15.9666539773 2.92693793192
4211 2 29.6075638028 17.4381776493 1.12463299065
4230 2 31.4755893751 18.2750988155 3.55644124524
4212 1 32.0154773226 17.4510694837 1.12852268436
4232 1 33.0208731555 16.0283237768 3.01023170281
4883 2 34.1461686163 17.5922948277 1.76809120683
190 1 39.3753530668 17.732216486 2.23338017782
4904 1 35.7390538191 16.5862842935 3.5148570071
4886 1 38.19710281 15.9913646894 3.54569614211
321 2 37.0836889072 17.3580521652 1.78249482713
181 1 1.96981654212 20.7924863189 2.46768767861
360 1 3.2083746406 22.9385537225 1.85350457263
340 2 1.35222789915 21.9092553595 0.357342357714
182 1 4.2740718801 20.7878624203 2.46762472176
853 1 6.6509734581 20.8414032714 2.37622512381
1010 1 5.7051515084 23.1429702094 1.89245445054
1012 1 7.44289754113 21.5395716029 0.178578943667
1011 1 4.98883494491 21.4535494812 0.218278935844
854 1 9.09651495135 20.839143806 2.33104682598
1032 1 8.19133966099 23.131283042 1.92732218517
1525 1 11.5371470458 20.9347034113 2.2416949479
1683 1 9.85219831629 21.6345518382 0.116931126871
1682 1 10.6617049082 23.1918459959 1.88631150353
2195 2 15.2867893078 19.9043568635 0.411471983716
1527 1 12.9575620554 19.5628635129 0.541849643294
1526 1 13.9705962377 21.0419368418 2.16834028136
2354 2 15.6274905262 23.092664 1.96109992434
1704 1 13.1298954487 23.2798181848 1.75816367645
1684 1 12.2543421335 21.8218311031 0.0254595319148
3026 1 18.4942472927 19.5682413774 1.76978813231
2197 1 16.6736041407 21.1694593078 2.29065020293
2376 1 19.1564855436 21.939717432 2.09665522288
2359 1 17.7906112129 23.0846618513 0.349801011738
2866 1 20.8264409859 19.6517470819 1.84912307561
2889 1 23.2457895075 19.6522147735 1.68916914223
3032 1 21.5703820578 21.9508870385 2.17198829245
3027 1 22.3673238689 21.22520572 0.0170521974168
3012 1 19.9517903715 21.1448793933 0.0243517626568
3033 1 24.0148604849 21.9693360018 2.07495622132
3538 1 25.6673952568 19.6790311699 1.65729346879
3704 1 26.4652887318 21.9792369736 2.10237426036
4210 1 30.5767252119 19.7062286962 1.71129975631
3561 1 28.1205180228 19.703575541 1.66822265171
3705 1 28.9470269743 21.9763822832 2.11957188832
4376 1 31.4684186075 21.9797959457 2.13233591815
4233 1 33.0653415408 19.7381475992 1.68233089949
4377 1 34.3457700893 21.8132414939 2.1190638913
4884 1 38.1110481958 19.4316159782 1.19902563371
177 1 39.3559564322 19.8896961795 3.12404671766
5043 1 39.1894094308 21.8716992046 1.8540985628
4882 1 35.6675252438 19.5383480565 1.97244063885
5049 1 37.0456030534 21.0938301451 3.33567825447
5048 1 36.9243994307 21.8685852714 1.09488063313
353 2 0.0983176108997 23.4106806696 3.53893218472
343 1 2.48187113264 25.5267308266 1.64020110266
366 1 3.40662149069 26.9200091769 3.37697292498
5066 1 0.0235897120865 25.0566556629 1.64753509807
5073 1 0.953824588884 26.938820232 3.38997302645
1013 1 5.87151445088 26.9838040942 3.35952638254
1014 2 5.04181294484 25.6405468946 1.78682456833
1015 1 7.35571908161 25.3854962781 1.46416818413
1030 1 6.6375537052 24.6388580589 3.68792621201
359 1 4.18808865894 24.5760645968 3.69305310205
1038 1 8.28892621609 26.9149129739 3.22148314575
1685 2 10.7021392737 26.8039625547 3.34038096966
1686 1 9.75066738907 25.4605899578 1.47367962573
1031 1 9.08174620363 24.6526071421 3.67705071499
1702 1 11.5502060443 24.6721570748 3.65303297696
1687 1 12.1051890304 25.5385878976 1.43604400128
1710 1 13.1100369593 27.0044325036 3.15570556988
2358 2 14.2924277104 25.6198081255 1.21629832462
2357 1 15.501199221 26.8155670067 3.00969495798
1703 1 14.0565751485 24.7418561259 3.53207329472
3035 1 16.7450058022 25.436779635 1.10109215504
2505 1 19.163210515 25.6860714452 0.163931782684
3030 2 18.7222773062 24.4544031937 1.95099399215
3046 1 18.2231597579 26.8245071422 2.23315331204
2374 1 16.7792283097 24.5207042192 3.62574160868
3039 1 23.131476297 23.5362469867 0.311938615471
2364 1 20.6128360338 23.5694046352 0.430976698501
3031 1 22.319542306 24.1814576735 2.4326894586
3056 1 23.1453252513 26.3869321198 3.03537442693
3029 1 20.5886940995 25.9327495814 2.47716635558
3037 1 21.7526308009 25.8105534712 0.5240931234
3038 1 24.035206698 25.8019198204 0.808170304304
3697 1 25.5754244937 23.5003417629 0.337680965887
3701 1 25.534453681 26.5598003154 3.02996865096
3702 1 24.7869033755 24.245565124 2.54830699475
3703 1 27.2238112271 24.2581719893 2.58207348333
3709 1 26.4214573336 25.7650721836 0.85782791455
4369 1 30.4779203821 23.5131511573 0.390834153472
3710 1 28.8568965075 25.8005186637 0.829489946322
3711 1 28.033406284 23.5093005852 0.3790062255
3728 1 27.960251843 26.558381484 3.01284328603
4373 1 30.3584979476 26.5692529131 2.99526121622
4374 1 29.6478212665 24.26378069 2.5758764017
4381 1 31.3014900635 25.8368785706 0.820163727375
5046 1 35.2414195607 23.5814156454 0.430449175851
4383 1 32.9209361193 23.462141544 0.471923822196
4375 2 32.0248547781 24.3488021839 2.60939493121
4382 1 33.7655873282 25.8292691741 0.842222988013
4400 1 32.6845762408 26.6339997404 2.97374370267
5045 1 34.5274528103 24.2819217609 2.62982260875
5087 2 34.8597739576 26.5193221098 3.00764809266
4901 1 37.2081443339 23.7097591408 2.70370261621
5055 1 36.4215396172 26.2697517786 1.35834873214
356 2 37.9949453235 26.0931749639 3.08866507102
5041 2 37.2840536322 24.3579650157 0.472552153802
337 1 0.726149910946 29.929419686 0.832359228981
346 1 2.6397854671 29.1827813785 3.00276596813
347 1 1.65834878558 27.721123295 1.25820222387
351 1 3.21301190919 30.0312358364 0.682841359398
5062 2 0.440831791452 29.3009333089 3.06443122696
348 1 4.06439103714 27.793109269 1.14367013069
1009 1 5.6837899939 29.9153845289 0.631860880882
1017 1 5.02194313383 29.2093412904 2.90014042244
1018 1 7.45570160949 29.154484572 2.79758282485
1019 1 6.49105076913 27.6502004026 1.05601291233
1020 2 8.86466949157 27.7044313409 0.933959660069
1023 1 8.16463978553 29.9551469478 0.597110550844
1681 1 10.6381066816 30.0345517318 0.572742479942
1689 1 9.909806737 29.1499687116 2.75246538011
1691 1 11.3698392775 27.8158619499 1.0736812469
1690 2 12.4378935152 29.358935793 2.77196340005
1692 1 13.858689899 27.9059806975 1.00516051034
1695 1 13.1270273534 30.0808729849 0.570437350661
2361 1 14.9340837393 29.2970477471 2.87346817445
2353 1 15.589837223 30.2718242852 0.723943361355
2366 2 16.2942695662 28.0413514659 1.22820164844
3198 2 18.1363617454 30.7274521632 1.0683360979
2381 1 20.0022071082 27.8036404112 0.554141511291
2362 2 19.883022912 28.2145897199 2.85975626242
3057 1 23.0588547298 30.325547594 1.71615922488
3034 1 20.587604479 30.2294400347 1.67540225944
3054 1 22.1073058971 28.020899099 1.79391470848
3055 1 23.8320176421 28.8210474868 3.46383893404
3706 1 25.5162079019 30.3659136963 1.69610868584
3707 1 24.6570169057 28.0790140791 1.27636370224
3708 1 27.1475468777 28.0793440281 1.24988949863
3726 1 26.3030639596 28.8310937751 3.43465078959
3729 1 27.9571644832 30.3687036309 1.68402387514
4378 1 30.4076759241 30.3923788631 1.70705385745
4379 1 29.6110502325 28.1016816366 1.22223993255
3727 1 28.7711243343 28.8425936652 3.42454043382
4398 1 31.2217596773 28.8199332606 3.38461632043
4380 1 32.0763684197 28.1081277709 1.12301065331
4401 1 32.8498590753 30.3870129883 1.71653047734
5051 1 34.5475631022 28.1775216222 1.2465429591
4399 1 33.6747860746 28.833021217 3.39783094448
5050 1 35.4919834405 30.4084421051 1.80667306083
5064 1 38.7889560969 27.638827239 1.77660682504
5070 1 37.3197764225 28.861408067 0.477512226036
5069 1 36.4154623815 28.2379406411 2.99002725995
5206 1 38.2268611335 30.6786538238 2.04630757503
349 1 1.49595418532 31.3903249128 2.74608040359
528 1 3.03627003563 33.4763577108 2.52706325781
508 1 2.32328597911 32.3103965041 0.713132036753
5223 1 0.00178368754215 33.1245453037 2.39683744001
350 1 4.05070267641 31.3788331199 2.55136914487
1021 1 6.5403480263 31.4154659531 2.40125109931
1178 1 5.7420171698 33.6646728998 2.05567975303
1179 1 4.80162855272 32.1183262805 0.271271971269
1180 1 7.30639636328 32.1899794209 0.196308792604
670 1 4.22352532262 34.3138239862 0.387546859015
1022 1 9.01349105522 31.4196584735 2.35119909723
1200 1 8.17673214265 33.7145935434 1.91722662498
1693 1 11.4488666473 31.5074602444 2.32962051352
1850 1 10.5880454621 33.7639862614 1.8998560913
1851 1 9.77427598939 32.2538372418 0.150328304174
1694 1 13.9398477101 31.5266158304 2.36035941135
1872 1 12.9954837003 33.8007521074 1.9382706598
2522 1 15.3630301138 33.9578231509 1.95768714717
1852 1 12.2630466235 32.28276258 0.15268524817
2523 1 14.770847641 32.3696183832 0.201228819581
2365 1 16.4093661447 31.7688678978 2.54743485467
2543 1 19.2322223647 32.6586776753 2.11192833569
2524 1 17.2889733256 32.7710792759 0.557463198813
2688 1 17.614440852 34.1964488266 2.51112913417
3194 1 20.7712233013 33.9398036905 0.446273957076
3200 1 21.5782346801 32.5432384313 2.2125060337
3207 1 23.1386874338 34.0961529182 0.405920641478
3199 1 22.3316544199 34.8744838593 2.58480206612
3052 2 20.1125574784 31.2534521392 3.69160352859
2550 1 19.9875645235 34.9237723489 2.70353117315
3201 1 23.9368545239 32.6193275139 2.21080471483
3865 1 25.5551056524 34.2148919014 0.392662060326
3872 1 26.3617487331 32.6606181459 2.12889961961
3870 1 24.7570970297 34.9462068706 2.58907162765
3873 1 28.7947495149 32.6629247464 2.12472929185
3879 1 27.9634680115 34.1602467341 0.378642343275
4537 1 30.4069290037 34.186488635 0.374714649226
4544 1 31.2317968713 32.6854930716 2.09745962234
4542 1 29.6018922245 34.9453744684 2.60533267612
4545 1 33.7579319671 32.6375146362 2.10455317787
4551 1 32.8608169242 34.1701040497 0.401871410824
5209 1 35.3538010602 34.1477864938 0.380940114157
5214 1 34.3356082298 34.9451765866 2.56756396198
4543 1 31.9994009752 34.9587744488 2.58935199117
345 1 39.1302620568 31.9555386127 0.291575875222
5216 1 36.6935305229 32.6620126762 1.84519018853
5362 1 37.8931910658 34.2740616726 0.514302211188
506 2 0.0977417219875 35.4562582909 2.09357829269
509 1 1.05512769869 37.6045091416 2.89213414472
511 1 2.72216149594 35.7732703575 2.04896042716
534 2 3.51358222534 37.7528014545 3.48160725959
510 1 1.41717440989 36.9834404663 0.627557874484
516 1 4.06454584065 38.1603949134 1.09447114793
1181 1 5.803641085 37.5763271976 3.31693675485
1182 2 5.1949019823 36.0377221326 1.50402637109
1183 1 7.45493870114 36.0263860848 1.46668624183
1187 1 6.54393529842 38.2854128578 1.02603768698
1198 1 6.55487006425 35.3006053659 3.66579844644
1188 1 8.96622289103 38.299573322 0.969306317598
1206 1 8.22053157411 37.5944849818 3.22837518408
1853 1 10.6586501819 37.6306204747 3.1867070244
1854 1 9.81443438557 36.0572718264 1.47110757544
1859 1 11.3723458013 38.3664403395 0.975617168813
1870 1 11.3636747912 35.3472088929 3.62001742239
1199 1 8.96776052296 35.3016907122 3.6398273228
1855 1 12.2043694543 36.0738191245 1.40357778306
1860 2 13.5615115753 38.0837551749 0.494006163074
1878 1 13.1169254491 37.7353625392 3.07251758491
2526 1 14.6165371296 36.2451379934 1.48102369574
1871 1 13.7003891456 35.4647313711 3.60027257296
2525 1 15.8768409245 37.8810199335 3.24822433291
2678 1 18.7244588457 35.0698796113 0.666737875618
2527 1 16.9223763454 36.5581763271 1.22368472698
2530 1 18.2132709842 36.6356426613 3.28129828992
2532 2 19.2670956928 37.2359556372 1.48477846356
2542 1 16.0748273402 35.6057356629 3.6180224853
3205 1 21.3929395125 36.3398417393 0.689263867923
3224 1 23.2030738906 37.1492725905 2.97158347112
3197 1 20.8827524053 37.0861910642 3.01002067182
3204 1 22.3695659677 38.6668717144 1.06331675735
3871 1 27.1811556398 34.9684083241 2.57648848906
3206 1 23.8846810944 36.4501687685 0.792487119022
3869 1 25.5805789662 37.2552443418 3.0432014308
3877 1 26.3572548437 36.4929449831 0.832987831277
3875 1 24.7791063957 38.7327804389 1.21485220379
3876 2 27.0371628697 38.8141457758 1.39619747052
3878 2 28.8379186393 36.3511934476 0.812671265201
3896 1 28.0010714952 37.2492989195 3.0214716998
4541 1 30.4088936286 37.2701727613 3.01489839912
4549 1 31.1897741765 36.4826400383 0.827975336433
4547 1 29.5113280507 38.7612659304 1.24698462355
4550 1 33.5863938218 36.4644156629 0.80229076934
4568 1 32.851297476 37.2632990613 3.02705965228
4548 1 31.9226974565 38.7684110996 1.26243366715
5219 1 34.3109955532 38.6786111922 1.22361011306
5233 1 35.2795378702 37.1954506239 3.00582530528
5215 2 36.5447534431 35.0259252674 2.56852627067
5213 1 36.064670149 36.5008238515 0.775736114792
5240 1 37.7889278403 37.0590954396 2.84621329131
5239 1 38.5686707753 36.6998705767 0.322846480048
5220 1 36.6615087821 38.754547665 1.11559597893
515 2 1.81427285573 39.1189543464 0.99161960724
514 1 2.6787016646 39.9615387989 2.89445716803
517 1 1.67091065517 42.3159766822 2.16795634563
519 1 3.43534900789 40.5998543615 0.642705156919
518 1 4.16643821017 42.1513430313 2.30188387537
1177 1 5.78071799519 40.542719087 0.555579830024
1185 1 5.03333933215 39.8460972253 2.77415330768
1186 1 7.39386666553 39.860270653 2.76016981323
1189 1 6.58484397672 42.148742514 2.29677118101
1190 1 8.9864732797 42.1588321372 2.29475801236
1191 1 8.19612505625 40.5688505277 0.521128600538
1849 1 10.6402772594 40.5957708027 0.520899713246
1857 1 9.76872888893 39.8732525226 2.72787924684
1861 1 11.3810643364 42.1970360881 2.28438230081
1858 1 12.0943177245 39.9841340935 2.81142234291
1862 1 13.7535440569 42.2587746595 2.34710501071
1863 1 13.1247769801 40.5318684869 0.548556950251
2529 2 14.3591288639 39.9564816682 2.78829480667
2531 1 15.8108885367 38.865768103 0.99363955291
2034 2 16.1335685892 42.4323942945 2.36000811261
2549 1 16.8571512202 40.104925879 2.78210196409
3202 1 17.2609985856 41.4878099015 0.309223365324
2548 2 19.015395727 40.2533338888 2.97834863228
2534 1 18.5217922707 42.3604515516 2.20566855081
3225 1 23.2191256568 40.8735407652 1.6443439702
3222 1 20.7067110046 40.9393737731 1.67362620237
3203 2 21.7988603982 39.1848291726 3.10627450582
3221 2 22.2851269291 42.3867959741 2.98783226376
2691 1 22.2849789539 42.6811676736 0.13546641956
3223 1 24.0356566749 39.4078289431 3.46266673501
3874 1 25.5878179078 41.0654584767 1.72728384073
3894 1 26.3976513918 39.565589651 3.51452404736
3897 1 27.9986704005 41.06936147 1.70220192937
4546 1 30.4012793923 41.0407809421 1.69096567151
4566 1 31.2482181588 39.5608032302 3.45779859606
3895 1 28.8164729788 39.5414858072 3.44568348102
4569 1 32.8079698864 41.0606854267 1.71282179273
4567 1 33.692210809 39.5822759261 3.47340244032
5218 2 35.07880445 40.781458276 1.64389919267
5234 1 39.0096138784 38.9821230745 1.25922450129
505 2 39.2842235478 41.2529714267 1.34872131061
5238 1 37.1894264621 41.2533380523 1.99853973259
5232 1 36.0934536425 39.3524448981 3.34416590267
18 1 2.5814800924 0.974047554593 4.01169548543
42 1 3.40905422334 2.52621752901 5.75315987892
35 1 1.74487716325 0.31701355731 6.1799006347
16 1 0.939864976798 2.56417234119 5.7117276077
17 1 0.181920951101 0.923421559889 4.04068951529
689 1 5.01004970353 0.994257053834 4.02783907973
36 1 4.21833934114 0.282457836069 6.21243154211
688 1 5.84929969605 2.52879213087 5.80432195982
690 1 7.41973926437 0.990206311066 4.05602267283
707 1 6.63807203954 0.254505257711 6.27886838392
714 1 8.27859108843 2.51895101611 5.82987220847
1360 1 10.7119996434 2.52457910829 5.82852679457
1361 1 9.82811311787 0.987874880508 4.07065551741
708 1 9.05217478284 0.242659318472 6.27770660591
1379 1 11.4601328847 0.256808698688 6.26712766227
2033 1 14.6288251806 1.00575437101 4.08259427311
1362 1 12.2355648984 1.00635866672 4.06986675163
1386 1 13.1557039027 2.55705138752 5.80899307781
2036 1 15.6466459886 2.47474209907 5.72059561585
1380 1 13.8548642876 0.279769166168 6.2721223422
2182 1 19.3728092625 1.02971331347 3.98272016971
2038 1 17.0143136164 1.0758997697 4.00899432348
2704 1 18.4717881386 0.600883620127 6.1348774892
2051 1 16.2189081433 0.185935597041 6.19938353416
2039 1 18.1129786861 2.9691730019 5.13482939062
2692 1 20.5036290206 2.12010908653 5.72036203171
2707 1 22.6703136508 2.23438137406 6.65296627879
2715 1 23.1134573353 1.51861341585 4.39592288269
2708 1 21.2543876417 0.266339207976 7.29153305175
3364 1 25.5849535562 1.36580795564 4.37326676958
3378 1 24.9622839437 2.15109055603 6.61103123535
3379 1 27.3481377276 2.13986777014 6.58636945859
3385 1 26.5429721261 3.66505078281 4.8307180537
2714 1 24.1509218146 3.70986191179 4.85415260173
3386 1 28.9531057764 3.6753306891 4.81754333803
3387 1 28.0670770725 1.38195872914 4.36763522499
4036 1 30.5332104649 1.37567470544 4.37473672242
4050 1 29.7753012495 2.15738131761 6.57635168242
4057 1 31.3508048445 3.69174347099 4.81564615362
4051 1 32.2099455154 2.1415090295 6.56169050112
4059 1 33.0613104029 1.34196503237 4.35707774887
4722 1 34.6497443761 2.18100203033 6.73937269902
4058 2 33.6094708809 3.54369775858 4.8276178786
4708 1 35.5697546817 1.75929084489 4.58680218558
5237 1 37.3475197467 0.276066603281 4.05170535956
4725 1 38.1114781232 2.45889547718 5.30382884475
4728 2 36.5230941925 3.47812694079 6.34224399512
4747 2 38.747173357 0.583792574026 6.22332483328
10 1 1.97445650602 7.04461767013 4.97897090394
21 1 2.68326791359 4.79137060475 5.32235180496
4730 1 0.221381308694 4.83165760006 5.26600256682
4751 1 1.04847098626 6.3174894501 7.05449148816
47 1 3.50704711644 6.33272758909 7.08781640409
29 1 4.35999121723 7.0710232897 4.89915141456
692 1 5.0998556871 4.80901177591 5.35327549446
693 1 7.52022711826 4.78370547399 5.37712636601
700 2 6.81157451715 7.05342640282 5.04505558956
691 1 5.9197648594 6.30312055973 7.15114424808
701 1 9.18714994574 7.08504581159 4.93606201452
719 1 8.35013965195 6.31372853475 7.14848365756
1363 1 10.7730620487 6.33010624031 7.11969855886
1364 1 9.94203133521 4.79794317087 5.3746776556
1372 1 11.6346507412 7.09249359512 4.89393653829
1365 1 12.3590919813 4.83198619771 5.34460566327
2035 2 14.7148514404 4.75276657444 5.27980202714
1373 1 14.3078535194 7.12466360711 4.84435120935
1391 1 13.1829801107 6.34956542869 7.06532652445
2062 1 15.5326576199 6.30920496679 6.99694530355
2027 1 16.8928532387 5.69871500767 4.86592948248
2063 2 17.8357827375 6.32919230828 6.81768742756
2046 1 16.5063499947 4.15949157719 7.12450390714
2713 1 21.827672678 3.91980708684 4.98189030107
2045 2 20.5279395201 6.31810735493 5.15487556556
2712 1 22.7443836923 6.18204008472 5.17099386004
2736 1 23.3109474306 4.51324538888 7.05050367948
2705 2 20.9364048373 4.25143541323 7.29585433546
3377 1 25.7323068345 4.45625872133 7.04442331592