ITEM: TIMESTEP
22000
ITEM: NUMBER OF ATOMS
5376
ITEM: BOX BOUNDS pp pp pp
0.0 39.5600404449
0.0 42.7297273569
0.0 37.0050293879
ITEM: ATOMS id type x y z
2 1 0.93351429027 2.10191119532 2.0279700724
24 2 3.46147571218 1.68129234079 1.84987573369
4 1 2.57937966712 0.174103717187 0.275702255386
674 1 5.84401629552 1.72547381773 1.93404057365
676 1 7.43772365402 0.131239392589 0.154273287183
675 1 5.02542941198 0.220554966788 0.181817397385
23 1 4.10561077693 3.28459064798 3.68826796566
694 1 6.58829093631 3.24624271766 3.69801233624
696 1 8.24310159569 1.66513573024 1.92218220402
1346 1 10.6613772452 1.62710589745 1.89323624718
1347 1 9.85721236165 0.0918478844149 0.139867141453
1366 1 11.4816808382 3.16392446155 3.64893010109
695 1 9.04159809647 3.21181257846 3.67984388178
1368 1 13.0768624526 1.56427715251 1.85992274706
1348 1 12.2644046027 0.0667308810282 0.0949996885353
2018 1 15.5004703363 1.50716814332 1.83024523176
1367 1 13.9179507227 3.06410085333 3.61043751514
2022 1 14.7350893016 3.7950737939 1.36679606148
2019 1 14.6721636136 0.0189952031437 0.0831942439414
1351 1 12.2725887958 3.84836679219 1.39939194696
2683 1 18.0400537406 1.34161075621 2.00590562928
2020 1 17.3225515018 3.57583011395 1.23341523635
2023 1 16.3578188925 2.95795879589 3.48426817143
2181 1 19.8077841892 3.43168124313 2.22665316049
2534 1 20.8027786899 1.3371599528 3.10849611619
2695 1 22.3315199376 3.19302771915 2.42307277567
2696 2 21.3764307788 1.42794966541 1.0219414585
2697 1 23.644958556 0.758061538123 2.01722685474
3361 1 25.4645581411 2.22853654425 0.273971741738
3366 1 24.7162322308 2.99160203422 2.46509655307
3367 1 27.1810482827 2.97189128507 2.4954173008
3368 1 26.2653940026 0.69538597744 2.05375060411
3369 1 28.7552909773 0.678430824942 2.05944311421
3375 1 27.9148788434 2.1940380929 0.284470077199
4033 1 30.3639876745 2.18056643122 0.285380724699
4038 1 29.6423456649 2.95606122597 2.5091536401
4040 1 31.2046938853 0.682137770175 2.05558104838
4039 1 32.1062522412 2.94337198836 2.48498792817
4041 1 33.6319999651 0.73240301591 1.97143145416
4047 1 32.8027691616 2.21686699481 0.262660164918
4710 1 34.6286357445 3.08854000077 2.42219000364
4705 1 35.2277603302 2.16170802465 0.279992515778
5 1 38.9131313804 3.47390398241 3.4660770512
4711 1 37.4236793978 2.7014454781 1.5508658963
4712 1 36.0159114543 0.712120645452 2.01365307964
524 1 38.4572872671 0.712072627311 2.22690988552
4729 2 36.5947269201 3.73210228749 3.51768296248
5241 2 39.0207198805 2.12243577047 0.10648039634
165 1 2.48474208968 3.97711226233 1.74345855511
7 1 3.26970962542 5.55408664632 3.32707476395
11 2 1.93096037271 6.30097746581 1.25697520804
20 1 0.450153343059 5.74972052765 3.0801960223
4870 1 0.284844877761 4.34147049044 0.829009622068
678 1 4.93205644442 3.96916551351 1.51163378369
679 1 7.38636493653 3.95544054061 1.49251128193
30 1 5.74904693552 5.51886752403 3.23553879685
12 1 4.17692105728 6.23425067618 1.08566128312
683 1 6.60185909236 6.24794970453 1.06742099431
1350 1 9.83315272923 3.92000645867 1.45402895716
684 1 9.03599523118 6.21536299825 1.03005423694
702 1 8.22157089609 5.49334274207 3.23805804749
1349 1 10.6603191456 5.45498181037 3.20838501699
1355 1 11.4659090802 6.12921352169 0.95274309952
1353 1 9.83889423671 7.74104667427 2.79639268909
1374 1 13.0730180352 5.30982578576 3.15180834118
1356 1 13.926426357 6.09603825899 0.940888778916
2021 1 15.4801189957 5.20194116089 3.16245831432
2025 1 14.7292457239 7.50485687536 2.77125673187
1354 1 12.2554230558 7.57462607156 2.6604257348
2167 1 16.3362261311 5.88998298366 0.979449526456
2845 1 18.6741264722 5.85433402397 0.940887941402
2183 1 17.8164163029 4.99186846916 3.02188672787
2026 1 17.1757988806 7.34513645053 2.82605413801
2028 2 20.4402655992 7.08284733533 0.84248251764
2693 1 20.7412342519 5.72907130354 2.94630061848
2700 1 22.5881233765 7.00530427642 1.40803654485
2701 1 21.5066480441 4.88455331335 0.776049915494
2720 1 23.1664560123 5.34065509759 3.03723362863
2718 1 21.8905436592 7.76183403351 3.64337812528
2702 1 23.8809044754 4.56471132267 0.755889355046
3365 1 25.6282545267 5.27501374795 2.9729156666
3371 1 24.8782156298 6.82441819214 1.220646696
3372 1 27.2462813969 6.76979448827 1.20630638745
3373 1 26.3227770017 4.50258792894 0.745749813993
3390 1 26.5673065068 7.5638647208 3.43064779214
2719 1 24.1868254246 7.61628500647 3.45186008051
3374 1 28.779050782 4.4628134404 0.747505431988
3391 1 28.98099396 7.52233019094 3.43988201568
3392 1 28.0872651072 5.24792771093 2.96512220646
4037 1 30.5489878695 5.23088386138 2.95587910787
4043 1 29.6357065402 6.72787999373 1.20931086626
4045 1 31.2274736039 4.43532361018 0.732391849814
4062 1 31.4049003312 7.45670240268 3.49860844999
4044 1 31.992788846 6.71415534667 1.20493050322
4046 1 33.6781220387 4.44968642408 0.704559892352
4064 1 33.0195575377 5.21052285745 2.89962187033
4715 2 34.1990313374 6.77161440411 1.06632864986
4063 1 33.8096932605 7.42151020772 3.44909634965
4709 1 35.6400215514 5.81294610525 2.44885869461
9 1 39.1309938854 6.79954524934 0.733682886941
4717 2 36.1077002459 4.35243707392 0.429547040363
4736 1 37.8681890441 5.12568936535 1.87018106871
4716 1 36.6619857282 6.96934991545 0.490254589464
4734 1 37.649072759 7.29300785572 2.72000662396
13 1 2.51407599532 7.88362990384 2.82522243168
15 1 3.42646089966 8.54835630898 0.651337101512
172 1 2.69252836107 10.8699609935 0.192776657019
186 1 1.78783456786 10.177335918 2.39507466462
1 1 1.07702850369 8.68801333529 0.668013596596
682 1 7.42957526532 7.78091749628 2.81940894817
677 1 4.99400439704 7.79152096388 2.84006982351
681 1 4.2473541372 10.0651006785 2.39692181819
673 1 5.84941314808 8.54905106886 0.647226215604
685 1 6.69828227446 10.0749484682 2.39490573133
844 1 7.53113232551 10.8342321809 0.195377840028
843 1 5.10393394962 10.8699708173 0.211299308206
686 1 9.14740308571 10.0604149884 2.39569303329
687 1 8.29179972391 8.52951547331 0.63352206999
1345 1 10.7409297193 8.46609820286 0.62515786953
1357 1 11.5695915756 9.98037225421 2.36902213574
1515 1 9.97551334169 10.7831960677 0.172322106523
1358 1 13.9916994861 9.78729392024 2.2373858728
1359 1 13.2097478624 8.36609892628 0.514129966304
1516 1 12.4488366246 10.6756429321 0.134897434355
2187 1 14.9511810113 10.5278024529 0.118428857937
2029 1 15.7901463086 8.25109801012 0.736223752108
2205 2 14.8884564754 11.2399430319 3.65970586262
2208 1 18.5841641925 8.84942718277 1.79767977979
2699 1 16.3668016057 9.74403767962 2.42971640284
2202 2 18.1227155147 11.1315568538 2.49863641774
2047 1 17.4492358877 10.5740648822 0.260599664394
2064 2 19.6325557331 7.99252985814 3.65644800943
2698 1 21.0056181072 9.14031683238 1.74538325462
2721 1 23.3517714212 9.24626114418 1.72771390873
2864 2 21.6941130356 11.3793533763 2.18460121475
2030 1 19.8528076155 10.8192935101 0.306936261589
2865 1 24.0994151069 11.4967529876 2.13451589538
3370 1 25.7121280026 9.12114112581 1.67247018662
3536 1 26.5160694046 11.4069067394 2.12211643069
3393 1 28.0960758408 9.04782743595 1.66566904328
3537 1 28.9193618942 11.3498730034 2.12752264941
4042 1 30.5049179482 8.94414881782 1.68360513356
4208 2 31.2052951055 11.1166055191 2.11519748304
4065 1 32.8779148805 8.9414889664 1.64711976417
4209 1 33.8131053657 10.8517021987 2.59924764007
4874 1 34.3620878508 10.721715887 0.172769940503
4726 1 35.4689862046 8.62773551064 2.11243960728
185 2 39.5051840663 8.52092460883 2.69076595815
171 1 38.901432695 11.0033389809 2.21435914605
4737 1 38.0269078842 9.04125587433 0.95564004002
4880 1 36.2655184655 10.8029903088 2.02672708392
4887 2 37.844127722 11.3841949037 0.266776059749
192 1 3.58335501398 12.3426231543 1.94830800901
319 1 2.90169028822 14.6337234826 1.37574804589
184 1 1.9607611999 13.898955049 3.60479258957
5027 2 0.729049701225 14.5329991167 1.36482946479
170 1 1.20930995196 12.3923581791 1.90636653492
842 1 5.96319002409 12.3653956802 1.95178252727
846 1 5.17877092881 14.6455759914 1.48745091256
847 1 7.54759808037 14.6353228559 1.46743550221
864 1 8.37796044136 12.3470412625 1.94409107495
1514 1 10.8113142349 12.2803475507 1.93342474263
1518 1 9.91436566584 14.6030145194 1.44777732486
1519 1 12.1959569828 14.3317804566 1.4476571411
1536 1 13.2100345683 12.0537650518 1.92622722924
2186 2 14.3856824836 14.0908339716 1.40388802402
1535 1 13.9516207884 13.5722551071 3.65365904613
2226 1 15.8250098797 12.1450994742 1.85603214042
2350 1 18.1292622199 13.1704302925 1.28689046734
2196 1 19.46675895 15.2255954543 0.804535722382
2207 1 16.0138190799 14.6938192536 2.84020985306
2191 2 19.9711204344 13.8814239083 2.79764679629
2862 1 20.7020562942 13.0929940228 0.510945152056
2863 1 22.4580191013 13.7229948688 2.59848988524
2869 2 21.914107071 15.362474689 0.838535998399
2871 1 23.1560022092 12.9982580798 0.388965901571
2870 1 24.1922244216 15.205327821 0.791300280247
3529 1 25.6358042771 12.9462541354 0.364427747851
3534 1 24.9367317952 13.7172955992 2.58475492017
3541 1 26.6258252804 15.1943604977 0.793198960469
3535 1 27.4149269793 13.6709730819 2.56910804179
3542 1 29.118390636 15.1503254928 0.778362827325
3543 1 28.0703340729 12.8937711732 0.355291947531
4201 1 30.3964244104 12.8456816469 0.342932372806
4206 1 29.8976042426 13.6230140311 2.56598604587
4213 1 31.6333444117 15.1274395715 0.741426858329
4207 1 32.3613550472 13.4095213641 2.51294007477
4226 2 34.7398978594 12.6590542216 1.74520422095
4898 1 36.9652935912 13.0904306095 1.84269963044
173 1 39.0441799282 13.8218171811 3.16643794648
318 1 38.8503203061 13.3176692374 0.211184726698
178 1 2.57009834877 18.315582344 2.78275097549
198 1 3.36031520802 16.1132703649 3.30647553773
310 1 1.73772738148 16.8280911987 0.966405917667
183 1 3.32106383667 19.0865782131 0.652682470333
190 2 0.125266084433 17.8835541584 2.45283053632
179 1 1.04581814097 19.3031725808 0.838816473162
180 1 4.20075763638 16.8695512885 1.07495981547
845 1 5.85917054959 16.1719154471 3.27488404544
849 1 4.91742790361 18.432269723 2.89284967509
850 1 7.35179640169 18.3639607497 2.99284519134
851 1 6.67462709252 16.8948941707 1.06812969812
841 1 5.705485822 19.1028785474 0.768941851717
852 1 9.12460217645 16.8904104064 0.950298962399
870 1 8.32315367964 16.1154078584 3.25482171537
1517 1 10.770311471 16.0594490715 3.17321409151
1521 1 9.76968354433 18.3715720073 2.81673056858
855 2 8.09976876815 19.0676779358 1.07061440973
1513 1 10.6196533331 19.0924349272 0.548063141288
1523 1 11.5886099685 16.8193287861 0.951750845025
2190 2 14.0945400442 17.2349915548 0.819974184127
1522 2 11.9652711514 18.2830805757 2.75593394864
1524 1 13.1058980488 19.2312105346 0.696577359437
2193 1 13.2844136992 15.9810807299 2.85678476006
1526 1 15.5520899384 18.9920034389 1.16663440756
2189 1 15.6940646256 17.0575864803 2.83858532484
2206 2 17.2131260238 15.5443176216 1.04419710978
2194 1 18.479531897 15.8393734049 3.00488239058
2199 1 17.8492448218 17.5758409492 1.49455703922
2867 1 19.5041754629 18.304867428 3.30815657471
3007 1 20.2751080666 17.4704538366 1.21978780831
2888 1 23.3741594031 15.9690472607 2.99847013004
2868 1 22.6460444687 17.5376789013 1.23555190011
2886 1 21.8310656965 18.2801627459 3.41984435475
2861 1 20.9279881565 16.0329350544 3.0495838368
2887 1 24.2158427038 18.2247528099 3.41465788535
3533 1 25.8246794328 15.9743405848 2.99807443884
3539 1 25.0505900606 17.4857076297 1.22231881775
3540 1 27.4744543969 17.4806273196 1.22278183397
3558 1 26.6407455127 18.2614992835 3.42293918834
3559 1 29.0591354607 18.2494188204 3.40777479012
3560 1 28.2742192327 15.9454123662 2.97830309018
4205 1 30.7119181038 15.9192320702 2.8999367664
4211 1 29.921180731 17.4845130668 1.18928527264
4230 1 31.4800623124 18.2483974552 3.37391120241
4214 2 34.0546377002 15.7887387986 0.848269720169
4212 1 32.3624304355 17.697316612 1.13582683302
4232 1 33.1214563145 16.3146713271 2.83000156895
4883 1 34.9368141921 17.8856462179 1.04268415807
4231 1 33.8978321526 18.6312488333 3.44319459464
4878 1 36.3857805684 15.8448390327 1.70645722392
321 2 35.7856643843 17.4427945939 3.12508290719
4886 1 38.0361447394 16.4678187716 3.37582664923
4885 1 38.7683465807 16.0459841207 0.967790198286
4884 1 37.4509284346 18.1962884809 1.73500314779
181 1 1.15548244964 21.7147727716 2.04186611447
360 1 3.27310390145 23.0111702138 1.98530719322
340 2 2.53531135592 21.3661575945 0.15846963142
182 1 3.85719291103 20.688425449 2.45187229616
176 1 1.11847795288 19.8997483294 3.52053531372
853 1 6.52670860619 20.6824759866 2.43066365792
1010 1 5.75606505719 22.9212540653 1.99395695317
1012 1 7.4712472769 21.3089857318 0.170027740558
1011 1 4.97206129417 21.3615763165 0.29755463588
854 1 9.05160182952 20.6993228671 2.40489661821
1032 1 8.23427335935 22.9172536601 1.94880951786
1683 1 9.95026026743 21.4638521126 0.220472904775
1682 1 10.7396806954 22.975213057 1.93141816968
1525 1 11.5089753966 20.678269162 2.31016816638
1684 1 12.3341068374 21.434221694 0.118151304553
2369 1 13.9581273945 20.8483153636 2.33960475056
1704 1 13.2375512263 23.0362924146 1.82167277298
1527 1 14.7983979332 21.5044680123 0.208245975334
2354 1 15.9902110329 22.9866391291 2.37306999457
2197 2 16.2501214131 20.7973120415 2.19298192791
3026 1 18.4141912472 19.7697694245 1.7683254183
2376 2 19.4000134775 21.999152366 2.19771991339
2356 1 17.343286381 21.207843656 0.112213553359
2866 1 20.9253566056 19.7915765344 1.69034355028
2889 1 23.368710917 19.7981951633 1.68820149129
3032 1 21.7150393256 22.0754633589 2.1600702191
3033 1 24.1202387881 22.0715032138 2.13925074096
3538 1 25.816865869 19.773546253 1.63470928779
3704 1 26.5202156181 22.0663632572 2.1631030416
4210 1 30.671122471 19.8198673113 1.62703101079
3561 1 28.2390227032 19.7865009462 1.67095496554
3705 1 28.942332986 22.0896538438 2.09960024483
4376 1 31.3225514826 22.1557473424 2.1077166276
4233 1 33.1264743375 19.9387521404 1.67352670434
4377 1 33.6228150606 22.2085969189 2.39140489858
5042 2 34.7066097049 21.5478632772 0.46311799578
5037 1 35.5939251052 19.965342719 2.17590679947
4905 1 39.4787922738 21.4446607809 0.072158658613
5046 1 35.8563525015 22.7177681407 1.97393951293
177 1 38.5669752693 20.1449510329 2.27286985936
5048 1 36.6883136925 20.188668418 0.159880506634
4901 1 38.2968147979 22.3924179879 1.7432810209
4882 2 36.9835693683 21.5310470055 3.44369523014
343 1 2.61045376208 25.2512968377 1.42724195832
366 1 3.43869901628 26.8544240736 3.12356792037
5066 2 0.944862447298 26.4043949432 2.57815833846
353 1 0.511740559806 24.0161455514 2.45333778491
1013 1 5.87920625912 26.7503509716 3.18791876286
1014 1 5.08484463139 25.1974444192 1.43557012592
1015 1 7.52402889051 25.2168171928 1.47857358727
359 2 4.33997921516 24.6154403604 3.59374692087
1030 1 6.67643555569 24.4974518327 3.70043998653
1038 1 8.33214478123 26.8089962115 3.21474759434
1685 1 10.7783032468 26.8269993678 3.22508585968
1686 1 9.95327663634 25.2593001302 1.45553155432
1031 1 9.11505820679 24.5132331322 3.66175797125
1702 1 11.5767969334 24.5646163289 3.64773057521
1687 1 12.3551555672 25.2638225753 1.4545215709
2358 1 14.7544108514 25.2617622275 1.45653790234
1710 1 13.2329551868 26.7753409662 3.24999727935
2357 1 15.6676943027 26.794257261 3.19562837668
1703 1 14.1159991426 24.3700820413 3.62818564919
2359 1 18.3470272154 23.3945822793 0.501236018959
2505 1 19.1469824608 25.7395857015 0.840843223749
3046 1 18.323959044 26.6011837234 3.07448310583
2374 1 17.0789244615 25.0377037674 1.73689511108
2517 1 15.9245526967 23.7039505054 0.0548821472413
3030 1 19.8713372121 24.3241057292 2.58106748718
3039 1 23.27943837 23.5715476649 0.38047065305
2364 1 20.8168158067 23.5496310937 0.415362722714
3031 1 22.3987518305 24.370005272 2.55853829331
3056 1 23.2138834317 26.6292675964 2.99671258355
3029 1 20.761068359 26.6134119395 3.01950754678
3037 1 21.6008532002 25.8123796 0.830501115548
3038 1 24.0601586818 25.8354489795 0.827598094628
3697 1 25.7295560071 23.5889294296 0.373398570943
3701 1 25.6584317196 26.6141379925 3.01656479301
3702 1 24.8706409021 24.3133476669 2.61285927582
3703 1 27.3086396404 24.3307470323 2.58360175851
3709 1 26.5013823286 25.8444066824 0.8443665564
4369 1 30.7231991543 23.6144842837 0.292094219889
3710 1 28.9370183721 25.8848410131 0.82396540021
3711 1 28.2073469137 23.6019654209 0.333537417786
3728 1 28.0981993547 26.6366915045 3.0137929576
4373 1 30.5478918495 26.6542094161 3.01403366824
4374 1 29.764791789 24.3574981656 2.55289821794
4381 1 31.3803926019 25.8985684258 0.766157018944
4383 1 33.2179068369 23.6850322981 0.492089634167
4375 1 32.1875802415 24.4005173876 2.62334732064
4382 1 33.6987508038 26.1041972086 0.911525965316
4400 1 32.9920648105 26.6585638796 3.13479093057
5045 1 34.5299321287 24.4475735258 3.00879248413
5087 1 35.4848732564 26.7572737434 3.21312227408
5192 1 35.776262213 25.1425236954 1.27041377844
5055 1 37.9187193357 24.5799614881 1.2981114967
5041 1 39.4614058706 26.1051429446 0.532374889134
356 1 38.066679561 26.1268261379 3.06659394827
5049 1 37.3500633309 23.9001940998 3.48964663816
347 1 2.07417166221 27.5300238441 0.963074180327
337 2 1.30921254093 29.7759619204 0.789598108872
346 1 2.9148394899 29.210221555 2.67671079839
351 1 3.66799822709 29.6913674355 0.508029954498
348 1 4.44119652084 27.4928298573 1.0182611652
1009 1 6.01743238291 29.7868565218 0.551825617334
1017 1 5.24492936447 29.0393153651 2.76484331393
1018 1 7.62724145266 29.1210184452 2.69121794214
1019 1 6.8155610319 27.5031422355 0.997525177457
1020 1 9.22011681781 27.5564172469 1.00928022996
1023 1 8.42202251584 29.8591922506 0.533986912506
1681 1 10.8329309965 29.8631202025 0.57298879764
1689 1 10.0164009107 29.1264689075 2.76965058101
1691 1 11.6493636656 27.5724411111 1.02249211097
1690 1 12.4074181972 29.0983593316 2.83353374082
1692 1 14.0992820507 27.545191117 1.10460636248
1695 1 13.2610663717 29.8631626264 0.640051152336
2361 1 14.7248419714 29.133113963 2.83304491206
2353 1 15.7542409253 29.8583269918 0.759981639234
3035 1 16.7628507633 27.5107942394 1.22222504805
2366 1 16.8622956391 28.9322241523 3.52694246952
2362 1 19.2237438738 28.9190629404 3.39306496233
3198 2 17.9539742977 29.5974479056 1.29553932342
2381 1 19.7826042319 27.9748193618 1.2133205085
3057 1 23.0982173963 30.4000494503 1.64980022673
3034 1 20.4610887052 30.2303023776 1.34105886892
3054 1 21.5626595922 28.9360707419 3.29790355191
3036 1 22.3312875862 28.1014490443 1.19120536023
3055 1 24.023693508 28.9085883248 3.40524980065
3706 1 25.5737161069 30.432098232 1.65834823797
3707 1 24.7910122252 28.1367195608 1.25969178234
3708 1 27.2484152385 28.1566910133 1.25512594477
3726 1 26.4353361293 28.930798472 3.43660742441
3729 1 27.9907899083 30.4658046872 1.68260462964
4378 1 30.3892003546 30.5029120337 1.69143604736
4379 1 29.691623187 28.1805013879 1.2522262027
3727 1 28.8476919909 28.9477973134 3.45044391115
4398 1 31.2220295174 28.9893605911 3.47190136625
4380 1 32.1422744618 28.2104179878 1.2865590148
4401 1 32.7538360849 30.5707823971 1.65769193825
5051 1 34.7172624471 28.3192845618 1.42687201412
4399 1 33.4801391674 28.9746944056 3.32553715972
5050 1 35.0809773158 30.6785875618 1.70205437269
5070 1 36.913827891 27.2355490553 1.20489221383
5064 1 39.1657135274 28.2783713745 1.58828015074
5062 2 39.0871659935 29.9647157537 3.27336276069
5206 1 37.3562567427 28.3502680288 3.25009365278
5202 1 37.2162851216 29.8510275721 1.46256445015
349 1 1.70696649095 31.3140261176 2.66584575211
528 1 2.95311370299 33.1580605162 1.77748342874
520 1 0.55965650293 33.2975125249 1.55186735513
508 1 2.50594418835 31.6983553116 0.0773485235985
527 1 3.65243611082 34.8702062442 2.94721569529
5222 1 1.16022281449 34.9111478506 3.25295374529
350 1 4.26528635903 31.2610506116 2.37228203968
1021 1 6.72418105061 31.4004516543 2.28544219506
1178 1 5.75144146686 33.6584896076 1.85521099144
1179 1 5.01421953852 32.0026285575 0.165655702415
1180 1 7.51117064969 32.1329031991 0.127143535464
670 1 4.18178181414 34.3336854865 0.015049482556
1022 1 9.16504924903 31.4110800326 2.3372235065
1200 1 8.26918413801 33.694160106 1.89313489319
1693 1 11.6026383949 31.3942216456 2.37280679524
1850 1 10.7480300647 33.6870256142 1.9204797207
1851 1 9.97520487682 32.1565118027 0.148635475015
1694 1 14.042718434 31.3939448443 2.43541395954
1872 1 13.2058239792 33.6191006608 1.97826553015
1852 1 12.4453169796 32.166585368 0.182827889911
2523 1 14.9546016558 32.1003708959 0.216831298862
2522 1 15.6896562485 33.6474991609 1.97007407744
2365 1 16.4007556005 31.4168651797 2.44851578409
2688 1 18.0379002787 33.8113896224 1.7615820939
2367 2 19.6519195415 32.3200371668 1.41739858696
2524 1 17.3967041984 31.8998449767 0.17433837832
3200 1 21.70057155 32.5855745646 2.23301180156
3207 1 23.002826407 34.2154551062 0.374837653737
3194 1 20.6105561573 34.1021893427 0.344551346312
3201 1 23.973943051 32.7235510263 2.12476229474
3865 1 25.4636208513 34.2560245741 0.362429531038
3872 1 26.3694566087 32.7430464457 2.1145133494
3873 1 28.7905706283 32.7753937809 2.10290648954
3879 1 27.9179411495 34.2948033791 0.336782492684
4537 1 30.3601729513 34.3303780751 0.306709949095
4544 1 31.214098315 32.8065931907 2.08222220192
4545 1 33.6777340894 32.8285403976 2.02732995029
4551 1 32.820332624 34.3458904475 0.28783024054
5209 1 35.3047287518 34.4004962633 0.200594958681
5216 1 36.1433796077 32.9443927913 1.79975686603
5052 2 38.3169562786 32.0589594226 1.12478416815
521 1 38.1638017396 33.6865608876 3.00818826907
379 1 37.1118104922 31.4122239503 3.40913961225
5362 1 37.7793823989 34.014652554 0.0468145375349
511 1 2.1167316454 35.522141172 0.95754269285
534 1 2.9044884216 37.1884211227 2.57568628486
510 1 2.03671377761 38.3970337894 0.693387148203
1181 1 6.00556942025 37.8358912425 3.23482361254
1182 1 5.1199506051 36.1263768796 1.6408777622
1183 1 7.52611848724 36.0268385801 1.55180305162
1187 1 6.84453077638 38.3756232526 1.10876554328
516 1 4.46795696013 38.5484896334 1.20122563114
1198 1 6.5077345908 35.186701806 3.60518270238
1188 1 9.23660150431 38.2743149286 1.13023298514
1206 1 8.34068922337 37.5472150947 3.35919392005
1853 2 10.8251403692 37.4543604869 3.1496126492
1854 1 9.96820345775 35.9758250018 1.45862465612
1859 1 11.722047284 38.2359804802 0.983669186134
1199 1 9.03527561073 35.2382652238 3.6395575008
1855 1 12.4005910509 35.9243367763 1.5795495516
1860 1 14.2699732829 38.183546292 1.06638091866
1878 1 13.1779039068 37.5243601564 3.24378272148
2526 1 14.8919978906 35.8700552694 1.520792789
2525 1 15.5625756893 37.5130057655 3.17342736232
1871 1 13.9267665171 35.2022000851 3.662989592
2527 1 17.2512421626 35.9608497444 1.65957619343
2531 1 16.7462879615 38.1743822436 1.02197350419
2682 1 19.1392092165 38.0269247152 1.11195499129
2530 2 17.842227301 37.4068578419 3.41060867885
2550 2 19.7340687111 35.6549760169 1.77954539913
3199 1 22.1515775753 35.017808255 2.58581803097
3205 1 21.4457044973 36.5938756087 0.749368342779
3224 1 23.0445409914 37.3137940477 3.02741221572
3197 1 20.6091554523 37.3427306409 3.21578674825
3870 1 24.6488654002 35.0337993968 2.56615951636
3206 1 23.797462977 36.5352625987 0.801415559357
3871 1 27.1312908748 35.0463913479 2.54059725054
3869 1 25.5231850393 37.3119884877 2.98746672234
3877 1 26.2766995081 36.5469246462 0.776412096547
3876 1 27.122284759 38.8204918353 1.18072061058
3875 1 24.6250146262 38.8080105445 1.21940018146
4542 1 29.5816457825 35.0735080808 2.51315662553
3878 1 28.7347890218 36.5799840013 0.746810484289
3896 1 27.9927287589 37.3261288725 2.95862164423
4541 1 30.4626931489 37.3420983729 2.94175914914
4549 1 31.1855390898 36.5952467723 0.741190117149
5214 2 34.2878729151 35.0158722969 2.3896626611
4543 1 31.9902285186 35.1180006859 2.47657494365
4550 1 33.6230432253 36.6379728274 0.707629365533
4568 1 32.9460305098 37.3713115849 2.90060823397
5233 1 35.5221122684 37.435848371 2.83801564946
5217 2 39.1155539825 35.4503911641 1.66244942468
5215 1 36.7093065237 35.3538490432 2.20603118416
5213 2 36.0240393251 36.8896744317 0.544041316595
513 2 39.1218602497 38.55787429 0.722967483312
514 2 2.84003692429 39.8167077888 2.44657286467
517 1 1.80885451625 42.2961925872 2.45122790005
519 1 3.44888878973 40.6789516702 0.535875215198
515 1 0.849777872809 40.4305246381 1.06546581648
3 1 0.198505928264 42.6338345089 0.417711448676
518 1 4.23728959211 42.1770901242 2.35314477612
1177 1 5.9612142692 40.7171513444 0.647688673856
1185 1 5.17782096786 40.059197043 2.88481963743
1186 1 7.58394789878 39.883939423 2.87690980779
1189 1 6.6751704163 42.1742844462 2.42579227722
1190 1 9.10035106412 42.101377153 2.37928779569
1191 1 8.3669541029 40.5771536614 0.629726503129
1849 1 10.8040009435 40.5141301545 0.581330486425
1857 1 9.98974056712 39.8133250425 2.80976933521
1861 1 11.508830496 42.0499959828 2.31258806646
1858 1 12.4065680884 39.7850737977 2.69755638909
1862 1 13.8838139205 41.9855359586 2.24759327547
1863 1 13.3434617196 40.3974694448 0.409031383911
2529 1 14.8492191305 39.7773730102 2.72934678334
2690 1 19.6499075224 42.7139219478 0.024981844141
2533 1 15.9564028709 40.5024751993 0.688149423575
2034 1 16.2334320364 42.0429133499 2.39216132758
2549 1 17.3500955021 39.8088769862 2.71046982573
3202 2 18.2529112595 41.6380285134 1.42173464168
3204 1 22.022914609 38.8926765405 1.30641878561
2548 2 19.9890987624 39.5667342019 2.51197472731
3225 1 23.2478129295 41.0277814002 1.62973220002
3222 1 21.0236749792 41.6698464354 1.75187876689
3223 1 23.9844274572 39.5699109874 3.435256625
3874 1 25.5899781573 41.0942626484 1.649712543
3894 1 26.4082106884 39.5882480253 3.40992782029
4547 1 29.5716652605 38.8486182729 1.19879358937
3897 1 27.9959849739 41.100601556 1.62850146157
4546 1 30.4244847797 41.1151553985 1.61515840712
4566 1 31.2961271458 39.5995367012 3.37372022453
3895 1 28.8455977463 39.5966403231 3.39583100762
4548 1 32.0361186242 38.8628286547 1.15013116895
5219 1 34.4761486639 38.8936382042 1.10529493571
4569 1 32.8648330646 41.1473352042 1.58609198657
4567 1 33.7440739176 39.6306929332 3.32820088425
5218 1 35.2805006793 41.1965143868 1.50171293308
5234 1 38.5107104522 38.9488250917 2.97413293579
5220 1 36.9008143503 38.9657440471 1.01979599462
505 2 39.4046838805 41.3702023345 2.85928284608
5238 1 37.6509005402 41.2252820473 1.44950212615
5232 1 36.1602233183 39.7381775621 3.23842661428
5237 2 36.6207512669 42.0727619859 3.68617809821
17 1 0.287093906374 1.19183790997 4.04558678756
22 1 1.59781360341 3.38500581252 4.32124197397
18 1 2.67849531184 1.13700956947 4.0428512964
42 1 3.41020151018 2.69797486923 5.89211134178
35 1 1.4877798962 1.27235657133 6.1550219148
40 1 1.52923742628 3.82828832839 7.3372439511
36 1 4.24837800592 0.433859356532 6.2812763578
689 1 5.02982307748 1.00129847703 4.10888585125
688 1 5.82259345911 2.49891380582 5.90535612451
690 1 7.44766111008 0.981461905976 4.15667509354
707 1 6.62989555257 0.239283849052 6.37746895547
714 1 8.26390298149 2.49653507761 5.90101397917
1360 1 10.7110540177 2.46063471009 5.87854620643
1361 1 9.8674456631 0.92371744433 4.12404990012
708 1 9.06340186038 0.21695795395 6.34658565676
1379 1 11.4753173761 0.15804650628 6.31130216211
2033 1 14.632155536 0.806898892786 4.09002016594
1362 1 12.2688420711 0.870086660195 4.09327975806
1386 1 13.1677984744 2.40037533813 5.86638971907
2036 1 15.7004493901 2.32149700297 5.85193833908
1380 1 13.8406028517 0.0760387240858 6.32249801246
2694 1 18.8399110257 2.50233840082 4.3830525729
2058 1 16.9318791109 0.766912116742 4.13753156666
2038 2 18.0429222421 3.04130685885 6.75048966045
2704 1 18.1902640457 0.891538561732 6.18487509134
3220 2 19.1172011506 0.168890292711 4.21192207918
2692 1 20.1123211461 2.37725850464 7.06159750427
2182 1 21.0405926742 1.03845830723 5.38363816328
2707 1 22.5163758213 2.36711914715 6.72255551064
2715 1 23.1748698308 1.66598360946 4.29872656474
2713 1 21.4837974107 3.50499618014 4.694530091
3364 1 25.5676358254 1.48287358058 4.26396071297
3378 1 24.8699430347 2.21501617289 6.5038842346
3379 1 27.3068301835 2.21806498966 6.4693822623
3385 1 26.4648619412 3.74430787704 4.70761568742
2714 1 24.0279356908 3.8154975347 4.74641237677
3386 1 28.8886261256 3.73324552418 4.72910698816
3387 1 28.0149694063 1.45793109341 4.26949661417
4036 1 30.447001861 1.41863434151 4.27250297611
4050 1 29.7435333535 2.19087638535 6.47893599866
4057 1 31.2651979346 3.70319179742 4.69906918165
4051 1 32.194512701 2.15431493804 6.48478671462
4059 1 32.887071574 1.36244897483 4.24099048037
4722 1 34.6680803226 2.32464963009 6.47581328412
4058 2 33.5237641602 3.50808325389 4.56946272059
4708 1 35.2553066558 1.57343572977 4.25355523193
4725 1 37.5444097754 1.58527095761 4.37240165918
4728 1 36.9937636761 3.5858489876 5.77167800516
6 1 39.2280723395 2.64005447218 5.8529996898
4731 1 37.4536138281 1.67418975292 7.32540783904
4724 1 36.2476711714 0.0152884783613 5.96029706826
10 2 1.79858500847 7.05400417052 4.80284870642
21 1 2.71712426599 5.02712900227 5.63239547861
4751 1 1.0969287063 6.46515131026 7.04677876876
4730 1 0.129567472297 4.9977415623 5.42611630155
47 2 3.53704928767 6.56941494538 7.38948465996
29 1 4.20377038118 7.07486550412 5.02711675274
692 2 5.12439051256 4.72982804227 5.3947221357
693 1 7.47380650463 4.77150124408 5.45288371384
700 1 6.62288977201 7.03243438332 5.00165597932
691 1 5.87018992215 6.33351661315 7.19814237624
701 1 9.06361882405 7.0318306339 5.01195088888
719 1 8.27714327049 6.30146544918 7.21461745879
1363 1 10.7048355242 6.29086745978 7.21665101297
1364 1 9.88425769109 4.74295886173 5.44223039927
1372 1 11.4637295647 6.97010800105 4.98509800659
1365 1 12.3094839914 4.68750186569 5.42360954245
2035 1 14.7229015891 4.48372634141 5.40588776462
1373 1 13.8441300212 6.75168891943 4.93281497552
1391 1 13.0799152156 6.20409724672 7.20798920722
2062 1 15.4817323891 5.93086532495 7.21048845476
2039 1 17.1283145419 4.45258684886 5.29218952747
2027 1 16.2194883302 6.64473188277 4.89858552386
2045 1 18.5921066979 6.61108605683 5.02544068578
2040 2 19.4910078823 4.64905017074 4.3446741821
2060 2 19.3752761376 7.22610934139 7.12633359079
2063 1 17.7382609808 5.6940982235 7.2588538877
2712 1 22.4715729855 6.04864075482 5.26020551385
2736 1 23.3778637363 4.55154727674 6.98150206185