ITEM: TIMESTEP
28000
ITEM: NUMBER OF ATOMS
5376
ITEM: BOX BOUNDS pp pp pp
0.0 39.5600404449
0.0 42.7297273569
0.0 37.0050293879
ITEM: ATOMS id type x y z
2 1 1.20474036525 1.89429322265 1.76951763439
24 2 3.62550284579 1.64400742205 1.71886526379
4 1 2.70489281023 0.187578659674 0.0463618896287
17 2 0.488239810057 0.771433833918 3.57760513822
674 1 5.96885774414 1.67112606733 1.87152255716
676 1 7.54862231196 0.133052006221 0.0869140743999
675 1 5.14362160703 0.167886080213 0.0784369774413
694 1 6.73787626782 3.19182647613 3.63679832329
23 1 4.33780432563 3.18315332168 3.68361177205
696 1 8.37081946903 1.65581528765 1.84857911284
1346 1 10.7973779428 1.66603380805 1.8244700429
1347 1 9.9576797835 0.164786729005 0.044129569518
1366 1 11.5771873129 3.20147673821 3.60561491697
695 1 9.16056715971 3.19191702522 3.61685603959
1368 1 13.2434192604 1.66186850452 1.79895816148
2018 1 15.7038771835 1.6671799208 1.65665233948
1367 1 13.9661262263 3.2459014561 3.55139277784
1348 1 12.4042465909 0.165783643651 0.0268397621368
2683 1 18.617988847 1.35751828233 2.10022996008
2023 1 16.3557232686 3.25907000849 3.39266069385
2058 2 16.78440031 0.994566842203 3.54853866019
2181 1 19.8846738366 3.24585397649 2.61783060056
2695 1 22.3811529781 3.11604743541 2.54946385345
2696 1 21.5334086769 0.868207124309 2.146256707
2703 1 23.2464019651 2.34912263062 0.37650053398
2689 1 20.8804029823 2.51259836178 0.533970509731
2690 1 20.0003144319 0.363760566724 0.021630191495
2697 1 24.0031256714 0.757551263829 2.08689607971
3361 1 25.6116240592 2.21188579522 0.379280449324
3366 1 24.8122105565 3.01553650884 2.57159861792
3367 1 27.2382208294 2.95103501402 2.63554973409
3368 1 26.4113559634 0.701760243316 2.1694536957
3369 1 28.8407377544 0.669686829292 2.1623496143
3375 1 28.0256505425 2.18532406075 0.408411131814
4033 1 30.442257205 2.17897807968 0.396983785453
4038 1 29.6851820536 2.94919469439 2.62045451066
4040 1 31.3002117319 0.672808795779 2.1450002568
4039 1 32.1316538062 2.96301959792 2.55701501204
4041 1 33.7151876129 0.545090951106 2.02986652237
4047 1 32.8700440398 2.17464263521 0.364287581319
4710 1 34.6409528626 2.94460509188 2.57433632935
4705 1 35.2251881474 2.02929072156 0.402257787285
5 1 39.1653099407 3.11450569093 3.37819895939
4711 1 37.3857085523 2.51153346 1.6149437741
4712 1 36.1391699644 0.329820601533 1.97803314841
4729 2 36.6739782532 3.55458920168 3.61262317377
524 1 38.6625943322 0.526417915414 1.91963004246
4870 1 0.250427684583 4.01259620541 1.05490828413
165 1 2.65612438015 3.92915706501 1.60416864819
7 1 3.48132042549 5.47989169072 3.27186765248
11 1 2.0079630646 6.21795353783 1.30129366194
20 1 0.659637812829 5.38395727512 3.27517005461
185 2 0.566726300074 7.76643425522 2.93516085155
678 1 5.09558612218 3.94248395278 1.46853169887
679 1 7.53647524991 3.9439784218 1.43216274535
30 1 5.9168224451 5.47078336971 3.22210791413
12 1 4.35097112946 6.27055761977 1.07841414497
683 1 6.74711420607 6.23578529683 1.01840992262
682 1 7.56100343897 7.76482567183 2.78270346823
1350 1 9.97653920833 3.94788476398 1.41294565391
684 1 9.16443659721 6.23019705801 0.988857821902
702 1 8.35350126361 5.47448765448 3.1973792674
1349 1 10.7839411644 5.47591007617 3.17626043281
1355 1 11.5905623289 6.23243828618 0.969417594614
1353 1 9.96169043634 7.75610386561 2.75206113508
2022 1 14.8739880422 3.95832239372 1.36079396101
1351 1 12.4223368344 3.95329829752 1.40043900264
1374 1 13.2138767138 5.50960411177 3.18663244404
1356 1 14.0212333905 6.23033134659 0.953718258017
2021 1 15.6450323952 5.50488608409 3.1384661459
1354 1 12.3517956142 7.75934567051 2.72458609368
2025 1 14.7046724998 7.75694709518 2.72846582836
2020 1 17.4061450498 3.92346760277 1.33328360566
2167 1 16.4728144982 6.15539364408 0.901927465283
2845 1 19.6287541156 4.6318441954 0.746794592561
2183 1 18.1530038951 5.30366416569 3.1473135871
2026 1 17.0102529292 7.55819313576 2.73064140016
2028 1 18.804977339 6.71953164985 1.14191428164
2064 2 19.2542124053 7.62493500319 3.3921520998
2693 1 20.6492216401 5.42011217667 3.14511238775
2700 2 21.3301249115 6.72981773969 1.36475003456
2701 1 21.8942494305 4.65965984137 0.86732125011
2720 1 23.1356152909 5.38948407598 2.95012461202
2718 1 21.5622412023 7.65817085927 3.59723644173
2702 1 24.2150168513 4.57384567422 0.805043918499
3365 1 25.5710624804 5.27590741282 3.04780759425
3371 2 24.7498065658 6.97025750252 1.43594351871
3372 1 27.1475257949 6.76173136696 1.31046082185
3373 2 26.5390655701 4.39400313757 0.860534043706
3390 1 26.3628686263 7.55947771675 3.49035663363
2719 1 23.9776739055 7.62028989603 3.59475441236
3374 1 28.8550540191 4.46330783287 0.86135216108
3391 1 28.7563120309 7.55633968907 3.47414888399
3392 1 28.0017257004 5.24956202685 3.05998736115
4037 1 30.438842016 5.25087426102 3.0346853902
4043 1 29.5488465416 6.74498780629 1.30292706788
4045 1 31.2744270363 4.45784985252 0.862847152699
4062 1 31.1765825671 7.55005688641 3.46920389314
4044 1 31.9719161513 6.6907273049 1.31092627873
4046 1 33.720314252 4.56344969707 0.933329404206
4064 1 33.0090747292 5.29322459535 3.11602330665
4715 1 34.3018887692 7.11796294045 1.53752243838
4709 1 35.7640137852 5.64575780559 2.76711174455
9 1 39.2503705088 6.51765163252 1.10236046278
4717 2 35.961288578 4.27147527031 0.614395709461
4736 1 37.9418522021 4.83090394362 2.16188294513
4716 1 36.8547174441 6.59922012756 0.769051858953
4734 1 37.8597422384 7.00408668792 3.14935955714
13 1 2.79724078544 7.83046878862 2.88124689051
15 1 3.52631725252 8.56205402312 0.637198266223
172 1 2.6965714048 10.8479172774 0.285199445046
186 1 1.7263627274 10.0612869004 2.39752055002
1 1 1.15023740087 8.42054738026 0.629299997889
4868 1 0.112536144097 10.4892351419 0.139361433134
677 1 5.16604771046 7.78173085324 2.82803055376
681 1 4.26282974082 10.0547707428 2.42030376103
673 1 5.94059235981 8.52198860724 0.596152241521
685 1 6.73228393738 10.0485325773 2.36874270325
844 1 7.59684203709 10.8086610306 0.166106853882
843 1 5.16378483141 10.8303033222 0.228402414923
686 1 9.16972997998 10.0473867924 2.33156754862
687 1 8.36456588163 8.51753371687 0.567239222914
1345 1 10.7869530926 8.52226706753 0.545853024984
1357 1 11.5861004338 10.0586475344 2.30407155167
1515 1 10.036302694 10.8119651453 0.12303019582
1358 1 13.9717576059 10.0703180362 2.28170428214
1359 1 13.1951126036 8.51534060966 0.533687915706
1516 1 12.4940732173 10.8198564138 0.0873984329489
2187 1 14.918343972 10.7341376156 0.0519437057809
2029 1 15.6681880133 8.41777572031 0.535592102635
2208 1 18.3267438128 9.07531506228 1.6883368691
2699 2 16.2719007928 9.84734139932 2.10915282159
2202 2 19.2248565105 11.0536792621 2.07768564322
2047 1 17.5056139683 10.5367680211 0.0581300791918
2698 1 20.718277834 9.04481795046 1.67446636993
2721 1 23.1017631668 8.98947301697 1.68711769327
2864 1 21.5734939384 11.4094281737 2.09379485118
2865 1 23.9770349728 11.3598361961 2.12609393986
3370 1 25.5543130244 9.1218183346 1.73299137236
3536 1 26.427842938 11.3658711701 2.1639174334
3393 1 27.9553176437 9.06176341138 1.72556278456
3537 1 28.8568024842 11.3231728621 2.17610520175
4042 1 30.3138562932 9.05087018032 1.72831169356
4208 1 31.289048542 11.2493411942 2.17909092924
4065 2 32.5263284411 8.88906385827 1.72068419586
4209 2 34.3711936392 10.4975899077 3.55595720246
4726 1 35.8030928344 8.32915288392 2.94640499694
4737 2 37.5740867366 9.54867622177 2.67199291319
4880 1 36.0286991764 11.2284336166 2.09073035981
4732 1 36.036888451 8.86205957915 0.520880183313
171 1 38.6786203655 11.5005541278 2.15499949758
192 1 3.59956090114 12.3561963524 2.00714287562
319 1 2.77622786896 14.6601001016 1.68506312905
5027 1 0.407293815825 14.7512647178 1.75377428765
170 1 1.26936039533 12.3824809095 1.93322777184
842 1 5.98061082502 12.3462738742 1.97530745754
846 1 5.14758401604 14.6247195535 1.60124382743
847 1 7.5538912649 14.6111252259 1.55289085375
864 1 8.39053797129 12.337113433 1.93497545162
1514 1 10.812783702 12.3451310792 1.8920598459
1518 1 9.93991960213 14.6595873858 1.48920432632
1534 1 11.4633107792 13.9474890616 3.62327601076
1519 1 12.3082004355 14.5732086893 1.39801779502
1536 1 13.2398567691 12.3576247916 1.80799684267
2186 1 14.6873927362 14.9331237891 1.3504671527
2226 1 15.6705840232 12.3103194042 1.85897940389
1535 1 13.7999507738 13.9746692363 3.42240385675
2350 1 18.2009192044 12.9618844636 1.09397994969
2196 1 19.3513385977 15.1360074092 0.855779637649
2225 2 17.2790155719 13.3073969492 3.39134785328
2206 2 16.9973946701 15.389442123 0.624596551504
2191 2 20.2879024646 13.6880139752 2.63660371986
2862 1 20.7175078978 13.0278469341 0.390874821519
2863 1 22.5248157867 13.6582940587 2.56234155598
2869 2 21.9136079845 15.3284459706 0.784555047871
2871 1 23.1911580251 12.9346552463 0.346234154298
2870 1 24.1879479616 15.1546158264 0.803892611539
3529 1 25.6598192905 12.8762767297 0.385994928841
3534 1 24.9038286743 13.6315181971 2.590259839
3541 1 26.5998023723 15.1336181003 0.822255367806
3535 1 27.3195381621 13.6292153014 2.60654524279
3542 1 29.0578152511 15.1380953436 0.828112799493
3543 1 28.1308646766 12.8631797513 0.408690097681
4201 1 30.5999265868 12.8670449664 0.445771273506
4206 1 29.708913378 13.6149589048 2.63666355809
4213 1 31.5400023763 15.1047109713 0.870404555315
4207 2 31.9403528635 13.4155005672 2.74925384123
4226 2 35.150633318 13.5284508379 1.54520478403
4215 1 33.0252187001 12.7328165867 0.647193423306
4214 1 33.9401448382 15.4442425495 0.757346370551
4887 2 37.5390794337 11.848945667 0.252262691706
4898 1 37.5609997986 13.7732402818 1.52257254715
173 1 39.1481165226 13.4837828629 3.5293096219
318 1 39.3736952355 13.0825860413 0.080209696091
178 1 2.13830408612 18.3596883553 2.98846373897
198 1 3.42959299926 16.2125514394 3.46524772124
310 1 1.82698748213 16.8058237831 1.13412076761
183 1 3.21740739489 19.0754600436 0.822082034152
179 1 0.580141177094 19.0114850251 0.684682669114
180 1 4.20829702186 16.8583055757 1.24018544255
845 2 5.92485555879 16.0808801424 3.28828021932
849 1 4.85195729262 18.3893161127 2.97390572916
850 1 7.34199211919 18.4789631564 2.82191633696
851 1 6.66809768862 16.8633362499 1.16548628308
841 1 5.66515260032 19.0086194185 0.81772227411
852 1 9.08392435041 16.962365664 1.08936169727
870 1 8.26239086776 16.1939034187 3.29690484477
1517 1 10.6507544852 16.2334900354 3.24325621089
1521 1 9.75043506875 18.4970612288 2.83935309411
855 1 8.21701532894 19.291002736 0.52947533052
1513 1 10.6594039318 19.2208686102 0.714617273456
1523 1 11.5426461858 16.9594233948 1.00813605278
2190 2 13.9739041402 17.1207019593 0.469006591544
1522 1 12.1337569851 18.5852259302 2.80213732918
2193 1 13.0058925208 16.2733260359 2.95059105043
2189 1 14.8779435867 17.8734700844 2.41437657501
1526 1 15.3637837037 19.2622432778 0.462810474984
1524 1 13.0636870709 19.2851358366 0.628888356472
2207 2 15.3210987375 15.9069970426 3.41096669557
2194 2 18.6555461631 16.2649732411 3.06106398835
2199 1 17.6357215362 17.5370933032 1.33716419532
2867 1 19.4902792523 18.3417484635 3.33541322978
3007 1 20.1650556641 17.3839755049 1.25337115412
2888 1 23.3724973742 15.935045906 3.00873233884
2868 1 22.5922935201 17.4738856743 1.25744380577
2886 1 21.8197409957 18.2242096246 3.44187269621
2861 1 20.9731040205 15.9622311859 3.0210348595
2887 1 24.2060138083 18.2039769145 3.43453159859
3533 1 25.7893856446 15.9093517636 3.01702169557
3539 1 25.0222270767 17.4368283216 1.25573960336
3540 1 27.4428049954 17.4177755378 1.25908653119
3558 1 26.6089425919 18.1966871066 3.43496816705
3559 1 29.0153047137 18.178402258 3.41862114809
3560 1 28.2411080075 15.8956848984 3.02964974298
4205 1 30.7156529082 15.8506662854 3.05964180249
4211 1 29.8808474864 17.4167657518 1.28924905042
4230 1 31.4419705717 18.1771443202 3.38142840737
4212 1 32.3504381286 17.4597113959 1.12919797271
4232 2 33.1684554823 16.2945624069 2.93101110054
4883 1 34.8625792024 17.5994210771 1.87467317068
321 1 35.6304281937 15.6098028001 2.86739416392
4878 1 36.3930457082 15.6499310475 0.643845182192
190 2 39.5520600843 17.212749151 2.2661625306
4886 1 37.9941806062 15.7054515602 2.98954319209
4885 1 38.644443992 15.739816946 0.0759949778809
4884 1 37.4346865243 17.7825105282 1.76040589457
5048 2 35.7750074223 19.10120573 0.557015700438
181 1 1.75234409834 20.6776608782 2.51536245031
360 1 3.41358269249 22.9812835885 2.05037715237
340 1 2.68443620471 21.3755537492 0.286099382372
4905 1 0.311930561741 21.3828127441 0.686866925994
353 2 1.05354522186 23.1167938092 2.1982169203
182 1 4.16237888346 20.6773669518 2.4352638868
853 1 6.57676834231 20.7245765438 2.40300801166
1010 1 5.82816303483 23.0303148831 1.99394142682
1012 2 7.58053907332 21.7630990288 0.389902114181
1011 1 5.10508365978 21.3705873418 0.276249264906
854 1 9.00940380075 20.7872500318 2.42133909632
1032 1 8.29133351057 23.139077965 2.07257455984
1683 1 9.87735017297 21.5562996907 0.289215784326
1682 1 10.7464126125 23.1386809124 2.00748456476
1525 1 11.4609698803 20.8347451997 2.38743239888
1684 1 12.2542462333 21.5002513358 0.180008732341
2369 1 13.9660070318 20.7268128195 2.43384042992
1704 1 13.1521528006 23.0169481283 1.91019479458
2354 1 15.9264242763 22.9836367833 2.42738196484
2197 2 16.294592509 21.0498345426 1.51581689484
3026 1 18.345852774 19.7912318793 1.65295061002
2376 2 19.6043498944 21.9888752683 2.11442366503
2866 1 20.9301223029 19.6975523601 1.69450326301
2889 1 23.3778315442 19.7295148231 1.70413713127
3032 1 21.8430982337 21.9812847178 2.18710797677
3033 1 24.2208203257 21.9778872446 2.12344651594
3538 1 25.8126247011 19.7244701755 1.67201556502
3704 1 26.6107370401 21.997595334 2.0875160354
4210 1 30.714198379 19.7312461891 1.66099119876
3561 1 28.2567792713 19.7193587082 1.67069095728
3705 1 29.0340681568 22.0121280611 2.05736892249
4376 1 31.568303723 22.0153548094 2.09805016055
4233 1 33.2486708251 19.6551248038 1.65272754334
4377 1 34.0857628247 21.561662855 2.63059366226
5042 1 34.8988003696 21.2351586633 0.230580624655
169 1 37.7030381222 20.3592703223 0.661486659609
5037 1 36.1066496666 20.1787053624 2.58761126469
5046 1 35.9987332004 22.8542234083 1.78728798386
177 1 38.996712885 19.580856638 2.76956634027
4882 2 37.8499703509 21.5969404546 2.6829815452
343 1 2.56794302193 25.2653647589 1.64963700289
5066 1 0.0981783765747 25.4374024406 1.94061830653
366 1 3.39556665228 26.8687618312 3.26213509056
341 1 1.05775017283 26.8654372386 3.62317704017
338 1 1.76590995382 23.6421853394 0.0354654231392
1013 1 5.79457463931 26.8806652879 3.30284731341
1014 1 5.02250260662 25.3135503101 1.55480664048
1015 1 7.47917026521 25.378278567 1.52677932108
1038 1 8.22590684814 26.910097287 3.2732944834
1685 1 10.663254506 26.8997029397 3.26592430466
1686 1 9.9592846613 25.3898444447 1.51146213997
1687 1 12.4490318558 25.3784474397 1.37034971411
2358 1 14.8255280634 25.2846870036 2.19641940322
1710 1 13.016699684 27.0230717105 3.08973308833
2359 1 18.4727519964 23.402662019 0.59182889847
2505 2 19.4280358531 25.725416096 0.880383971162
3046 1 18.4704325384 27.0496873698 2.6919561769
2374 1 17.5322774403 24.9283724459 2.59073862564
2517 2 16.4152340176 24.3550779752 0.686899909833
3035 2 16.2289293695 27.1808829275 1.76062226978
3030 1 20.0217469944 24.2960714022 2.5638924808
3039 1 23.3378387121 23.4825305731 0.456702592934
2364 1 20.9266612962 23.4432543887 0.486054913706
3031 1 22.5290530302 24.2920504486 2.61464006139
3056 1 23.3372958099 26.5728733454 2.99455090879
3029 1 20.9020836425 26.5585260611 2.97728590933
3037 1 21.7862688253 25.7193461594 0.827585384249
3038 1 24.1702792038 25.7681602665 0.7935069416
3697 1 25.7677148312 23.479963935 0.319460197955
3701 1 25.7723756636 26.5645771009 2.96689139997
3702 1 24.9636913518 24.2729746143 2.54282971645
3703 1 27.378477077 24.2800171858 2.52296768467
3709 1 26.5745200515 25.7707231345 0.744113016703
4369 1 30.688359315 23.4982344301 0.375000408345
3710 1 28.9827864688 25.7820524507 0.735636473274
3711 1 28.2029905992 23.5024712828 0.293919101104
3728 1 28.218664295 26.5619745354 2.95217354569
4373 1 30.6826950309 26.5635960202 2.90184506863
4374 1 29.7691824963 24.2944403939 2.52306474375
4381 1 31.3723598537 25.7970133502 0.623282966829
4383 1 33.4209382663 23.5102247116 0.531843834779
4375 2 32.0504956861 24.2954876709 2.51590032269
4382 2 33.5408921326 26.1153979454 0.239126237867
4400 1 33.149986216 26.5019726109 2.76894863875
5045 1 34.4003223851 24.0993367556 2.89565592301
5087 1 35.5310707055 26.8275918734 2.96976090213
5192 1 35.5240589855 25.3952787904 1.09070025901
5055 2 37.6177992795 24.2297130399 0.85575378175
5041 2 38.989682574 26.7970511737 0.15754868005
356 1 37.853824613 26.8806896304 3.65397979471
5049 1 38.273615029 24.0033883139 3.25635353623
347 1 1.79437519268 27.5028494512 1.18446390674
337 2 0.866935532961 30.0122111901 1.12045917352
346 1 2.32068769734 29.1266819663 2.90581196768
351 1 3.23909082794 29.8741470949 0.651611202582
348 1 4.21502243636 27.6382757612 1.11769502742
1009 1 5.76302464651 29.904044417 0.661958047974
1017 1 4.87368520833 29.1425945013 2.89708010786
1018 1 7.36679209787 29.1585392434 2.84916760924
1019 1 6.65037744428 27.6401485072 1.07971038225
1020 1 9.10368055845 27.6454631984 1.04399314162
1023 1 8.23264451767 29.9084421905 0.620953509657
1681 1 10.668766174 29.9155327503 0.582624526262
1689 1 9.81820757787 29.17042008 2.81794963695
1691 1 11.560594596 27.6571129134 1.01456742208
1690 1 12.2365347304 29.2267582173 2.78039144672
1692 1 14.0413837914 27.6354652495 0.902191621699
1695 1 13.0782966339 29.9094840712 0.544241470948
2361 1 14.6075722858 29.1360372615 2.70170151115
2353 2 15.3761939971 30.0820392527 0.58518260938
2362 1 19.3908682008 29.0927247365 3.25211392213
3198 2 18.5036039303 29.133514512 1.0568799299
2366 1 16.9849373236 29.3448479882 2.76879484399
2381 1 20.2812421902 27.9113095738 1.13976706869
3057 1 23.216129381 30.3310960984 1.6522620526
3034 1 20.6872552988 30.3216184102 1.27745017052
3054 1 21.7045672352 28.881306601 3.36540028188
3036 1 22.5557472091 28.0496749549 1.23295300777
3055 1 24.1397609647 28.8836366618 3.40812118984
3706 1 25.7003001261 30.3677181622 1.62256834925
3707 1 24.9401329723 28.079296499 1.22733776566
3708 1 27.3522157885 28.0891399001 1.22548889946
3726 1 26.5635872898 28.8722400335 3.40227844903
3729 1 28.1361629632 30.3756190123 1.60769803617
4378 1 30.5761799684 30.3489027419 1.57314176784
4379 1 29.8000985177 28.0562807256 1.11693307576
3727 1 29.0193905685 28.8567527326 3.33786789792
4398 1 31.49997957 28.8311710258 3.31707885897
4380 1 32.196665911 28.0886873224 1.05835838836
4401 1 33.0112802181 30.3748762014 1.58060353781
5051 1 34.5819313288 28.1480943347 1.04922427056
4399 1 33.9852967303 28.8353264675 3.33339285681
5050 1 35.4499467606 30.4069087754 1.39295110136
5070 1 36.9007722482 27.773791904 1.00917713083
5064 1 39.1261043046 28.1547368254 2.03780997652
5206 1 36.5683940897 29.0760769465 2.9981346331
5202 1 37.9757891675 30.0561350176 0.741523110546
5062 1 38.9529248174 30.4257296123 2.90320855178
349 1 1.85958387953 31.4736261496 2.50626263727
528 1 3.47206933324 33.7318066953 1.88758994158
508 1 2.34339791301 32.0839379063 0.12701038354
5222 2 1.19377150595 33.4978105633 1.88137559374
5223 1 1.77584822663 34.6573817409 0.0105339171003
350 1 4.22306498612 31.4147770761 2.33817175896
1021 1 6.6166314148 31.4286114002 2.39054965533
1178 1 5.86122836299 33.6961597367 1.91039163398
1179 1 4.92163160292 32.1718063367 0.169611986343
1180 1 7.39612819499 32.176326729 0.16761554439
1022 1 9.02280945802 31.4442061456 2.37195353029
1200 1 8.24368539349 33.7165579801 1.89529814374
1693 1 11.4239793464 31.4773369443 2.34414729502
1850 1 10.6281361269 33.7712465894 1.90689827557
1851 1 9.82601378278 32.1962157513 0.150398501351
1694 1 13.8176326227 31.4366699443 2.33452974287
1872 1 13.0260626252 33.7655687943 1.90385618401
1852 1 12.2321161358 32.2204262722 0.129286439667
2523 1 14.6336941367 32.305188428 0.153509928233
2522 1 15.4164256615 33.8207186509 1.93366901315
2365 1 16.1767606219 31.5719417615 2.46762689445
2688 1 17.812449204 33.7508496211 2.08779683572
2367 1 18.6348114879 31.3941287639 2.2034635344
3180 1 19.644469795 32.534999766 0.451939636801
2524 1 17.0427689782 32.3691415099 0.29571439769
2532 1 18.5836019799 34.6172522469 0.00603823538652
3200 1 21.4757834622 32.6006849767 2.15812929786
3207 1 23.2985087509 34.0499804138 0.299231419319
2550 2 20.9671968918 34.291392645 3.57772637514
3195 1 22.4253280403 31.83690254 0.0282234404487
3194 2 21.0389986255 34.1859700482 0.1944747186
3201 1 24.0138883344 32.6561087582 2.10300311304
3865 1 25.6328492968 34.1945351717 0.325516137043
3872 1 26.4467684443 32.6688155193 2.08341411363
3873 1 28.8778933701 32.6673696246 2.07669467312
3879 1 28.0242444971 34.1967075438 0.319620091392
4537 1 30.4231718197 34.1805940307 0.321199314653
4544 1 31.2942899422 32.6411760733 2.06987394894
4545 1 33.6665205089 32.7488175956 1.97234478148
4551 1 32.8034377846 34.2252135564 0.254157664132
5209 1 35.1971273474 34.2412748178 0.200561103964
5068 1 34.6481624852 31.2948847451 3.58066470775
4543 1 32.0260092175 34.9200454886 2.51070513158
520 1 38.2494023817 32.7428563738 2.06281726034
5216 2 36.005255348 32.6722112473 1.83035717963
5362 1 37.5104765546 34.5673810276 0.221797542418
511 2 2.99800176434 36.0958685351 1.60893822878
534 1 3.49814450939 37.630196797 3.3660498196
510 1 1.72627881859 38.1614785874 1.06812950874
506 2 1.2801658766 37.8926594145 3.55950750682
1181 1 5.92949440804 37.5957973282 3.26589039459
1182 1 5.19766797314 36.0493318538 1.47704929883
1183 1 7.52840658393 36.0276585758 1.46301238539
1187 1 6.63085190683 38.290054889 1.00364745637
516 1 4.2289679116 38.3372364737 1.07735749244
1198 1 6.63923602246 35.2867738585 3.63588949553
527 1 4.27471707743 35.2829467459 3.64592102268
1188 2 8.93625359858 38.2445370375 0.883183196377
1206 1 8.36419827501 37.5390280254 3.19028505659
1853 2 10.8734642022 37.6378874664 3.26952775601
1854 1 9.8864129627 36.0712056403 1.49833957293
1859 1 11.4534746023 38.3702827571 0.969852288076
1870 1 11.4421238263 35.2744870137 3.64553096624
1199 2 8.98683608941 35.158349559 3.67730559763
1855 1 12.2313607925 36.0928590853 1.45746464522
1860 1 13.9033854451 38.3582785196 0.911969567724
1878 1 13.1799720106 37.5922373094 3.17878699831
2526 1 14.5927915242 36.1174832472 1.49061485021
2525 1 15.5561272664 37.6154987835 3.26163914794
1871 1 13.8527068172 35.2554333827 3.68093113089
2527 1 16.8549662332 35.9776603952 1.52599114735
2531 1 16.3555103889 38.3440963778 0.88961103918
2682 2 19.0233643527 36.0433163807 1.73696200266
2530 1 17.9643723761 37.4502570343 3.11910148311
3199 1 22.4928809466 35.1772200058 2.29022519905
3205 2 21.712486418 37.0759864063 0.796244430675
3224 1 23.1511919453 37.4174278651 2.89265154598
3197 1 20.4988500105 37.6104987251 3.03659988582
3870 1 24.8033439162 34.9885117472 2.51222987683
3206 1 23.99031477 36.5340820012 0.757673395623
3871 1 27.2316405477 34.9781409388 2.52173580815
3869 1 25.602650294 37.2937878155 2.95603920766
3877 1 26.3765328732 36.5122537525 0.774597236077
3876 1 27.1856942725 38.8188928239 1.24238731016
4542 1 29.6465350347 34.9617093553 2.52302853364
3878 1 28.7661953013 36.5035236793 0.770491625728
3896 1 28.0348578209 37.2798562196 2.97295236464
4541 1 30.4368802168 37.2329298858 2.97542900472
4549 1 31.1399586967 36.4438154331 0.734767913484
4547 1 29.5870390834 38.8126445366 1.23793917588
5214 2 34.3058077988 35.2013565802 2.24087124244
4550 1 33.5347018586 36.5195020228 0.606286966931
4568 1 32.8452743303 37.1804487344 2.97467163485
5233 1 35.2179453225 37.2163171797 2.79526307347
4548 2 31.9251549345 38.5281154239 1.29288838015
5219 1 34.2049364019 38.7400299922 1.12196818267
521 1 39.1122566611 35.0318310675 1.99548254071
5215 1 36.7059752678 35.0295072259 2.54046996433
5217 1 37.7130377637 37.1407509267 1.90989387038
5213 1 35.9875631178 36.5025087027 0.567306937063
5239 1 39.0306893021 36.4753905829 0.0892721347532
514 1 2.57613818695 39.9132852505 2.66206224858
517 1 1.90029887936 42.2752778542 2.20370076611
519 1 3.4318615977 40.5909096557 0.528267973464
515 1 1.00184072894 40.5504490722 0.695458301884
505 1 0.0389251737936 41.2760887803 3.32642962584
518 1 4.32152700828 42.1372232057 2.23875884845
1177 1 5.88022140345 40.5818069143 0.542950842486
1185 1 5.05049039016 39.8559859564 2.77852739691
1186 1 7.52900007207 39.8044446841 2.71442729357
1189 1 6.74186450688 42.0962496172 2.28624661633
1190 1 9.16061726081 42.0822733555 2.24759056615
1191 1 8.32117164194 40.5722323474 0.503728796963
1849 2 10.7878199473 40.7105493178 0.440641538532
1857 1 9.93680715809 39.8119734008 2.65798202041
1861 1 11.568193584 42.1158656082 2.23833531281
1858 1 12.3585589347 39.8549987916 2.70779487824
1862 1 13.9619681046 42.0689280618 2.13291341959
1863 1 13.1109565902 40.5865534532 0.430404565263
2529 1 14.7361093162 39.8826635694 2.60293136756
2533 2 15.394570057 40.5495870315 0.282344780413
2548 1 19.3711398596 39.6065266628 2.0192281137
2034 1 16.358469312 42.02815247 1.95425449917
2549 2 17.0369437015 39.5906110358 2.72866888753
3202 2 18.6238024905 41.8758640582 1.48930960456
3220 1 19.9676443745 41.9369384764 3.61620676362
3204 1 22.1484798444 39.143162348 1.28496700855
3225 1 23.232760056 41.2310146559 1.72486587617
3222 1 20.9128402679 41.3321033274 1.54806826664
3203 1 21.4176116023 39.8013424125 3.51077478099
3875 1 24.7563652833 38.8737095196 1.26522357126
3223 1 23.9248630075 39.6496577206 3.45748365714
3874 1 25.6079944808 41.1490588537 1.70766303259
3894 1 26.3901964346 39.5918478212 3.44884791263
3897 1 27.9938288281 41.1087257982 1.70608832116
4546 2 30.3461443776 41.2020091166 1.71990096476
4566 1 31.2347497961 39.5102174652 3.42449222326
3895 1 28.8230900662 39.5656998264 3.44128402497
4569 1 32.7667384055 40.9875339961 1.64842740089
4567 1 33.667623665 39.4229432325 3.40187729836
5218 1 35.1260065455 40.8888879433 1.65329039372
513 1 38.9039673744 38.9157868202 0.886514183098
5220 1 36.53772679 38.9960219783 0.908703770492
5238 1 37.9522517835 41.0235704055 1.50760148988
5232 1 36.1229746384 39.3720318962 3.24796158792
5234 1 38.5778131928 39.1053098699 3.3269303663
22 2 1.9929077646 3.44021886562 3.88031688503
18 1 2.80680462012 1.12435541193 3.8780494368
42 1 3.27209142911 2.38691498847 5.85868424814
35 1 0.89837522413 1.7584425276 7.0547138869
36 1 4.22217748413 0.238546569749 6.26457652866
689 1 5.11729957719 0.898686018915 4.07775948452
688 1 5.86808717254 2.43659610782 5.81657693568
690 1 7.53058406772 0.901884773635 4.05488628502
707 1 6.69490926298 0.170946358831 6.27720625631
714 1 8.3393007154 2.4281835127 5.81450703546
1360 1 10.7845380937 2.42018949155 5.80405224212
1361 1 9.94072533981 0.898822218433 4.0251475258
708 1 9.16641162247 0.163956310175 6.25282295995
1379 1 11.6280752827 0.166899719184 6.24677978465
2033 1 14.6206937648 0.897758305596 3.80324662232
1362 1 12.3262303683 0.89787569924 4.00268307483
1386 1 13.2265551776 2.3747095799 5.73399674228
2036 1 15.6576087028 2.41481717434 5.61604515005
1380 1 14.0874171263 0.164439460035 6.2143672933
1385 2 14.0129192605 3.73185971809 7.38433942004
2694 1 18.3228533709 2.37557188385 4.42701575049
2038 1 17.7076368537 2.5013880313 6.76553563929
2704 1 19.1845271983 0.291854041779 6.06566965195
2051 2 16.3719307762 0.274728099824 6.64472535165
2534 1 20.5431525665 1.5070328997 4.17275554498
2692 1 20.089353971 2.36938607682 6.50983087066
2707 2 22.4733226237 2.3852797187 6.91333112374
2715 2 23.1224875308 1.46766440269 4.10537223493
2713 1 21.7590745225 3.59291706555 4.78114234698
2182 1 21.5943681286 0.190614238709 6.07445287786
3364 1 25.5500254905 1.49208790913 4.39366932193
3378 1 24.8912626385 2.31684485489 6.65844648298
3379 1 27.2655379367 2.22523808083 6.58835894541
3385 1 26.3960748163 3.72918639487 4.80872078248
2709 1 24.0092993188 0.0856335980042 6.08885337101
2714 1 24.0475390409 3.77250493145 4.7434566456
3386 1 28.7739466481 3.67060667498 4.80322930965
3387 1 27.9791434973 1.41315824292 4.37597769757
4036 1 30.3984707346 1.36881353507 4.34226281007
4050 1 29.7142925756 2.18760371376 6.5495207653
4057 1 31.1687229853 3.66111829906 4.77211849707
4051 1 32.196082525 2.20019429303 6.50876042371
4059 1 32.7816559079 1.25030396487 4.18207250552
4722 2 34.6412595761 2.05458369852 7.1122161906
4058 2 33.3637157844 3.45850813711 4.59535123621
4708 2 35.1718064176 0.955132979492 4.13895900901
4725 1 37.496787495 1.31116913605 3.87266385982
4728 1 36.6137262316 2.44444101803 6.0063410168
6 2 38.8197771991 2.61043147499 5.75043119529
4747 1 38.6108207553 0.0832018572268 5.54765178098
10 1 1.89605350109 6.97350882203 5.03708563097
21 1 2.78691299192 4.77760461944 5.49576114607
4751 1 1.06051958548 6.17999792932 7.2601239135
4730 1 0.448909647318 4.54628380588 5.61730298363
47 1 3.51926894466 6.24169420904 7.25231265621
29 1 4.3259116418 6.99440633276 5.02342103271
692 1 5.16059243477 4.7137264266 5.4382373245
693 1 7.56958883537 4.71665250603 5.40740981335
700 1 6.75409831893 7.00027621291 4.99142418476
691 1 5.95214002711 6.23872473595 7.20326837489
701 1 9.18273041011 6.99350837879 4.96893849909
719 1 8.38692964034 6.23242610409 7.18393030085
1363 1 10.830839286 6.19029528098 7.17017718073
1364 1 9.99793151021 4.70650689857 5.38983455592
1372 1 11.6079023132 6.95791813853 4.94891975659
1365 1 12.4310056948 4.706554324 5.40518706848
2035 1 14.8285263005 4.71251397316 5.36217965899
1373 1 14.0508929962 6.99967834422 5.00412551468
1391 1 13.2956530125 6.17334329251 7.18127878553
2062 2 15.795104638 6.41216180499 6.93945656294
2039 1 17.1660254058 4.62488530297 5.27279248142
2027 1 16.4600000345 6.97748240808 4.91103577916
2045 1 19.3115751445 6.45243524247 5.31426327514
2040 1 19.5677212604 4.17338819822 4.9398392915
2063 1 18.5920714359 4.83485529195 7.08380870998
2712 1 22.1479238826 5.96975701462 5.20123479487
2736 1 23.2765344026 4.57448664547 6.93698155226
2705 1 20.9413993853 4.59409909635 6.89073893855
2734 1 21.5384685121 6.89049368026 7.37244261537
3377 1 25.6442808159 4.56883365289 6.98465066499
3383 1 24.6736601283 6.0299619982 5.24627545495