ITEM: TIMESTEP
12000
ITEM: NUMBER OF ATOMS
5376
ITEM: BOX BOUNDS pp pp pp
0.0 39.5600404449
0.0 42.7297273569
0.0 37.0050293879
ITEM: ATOMS id type x y z
2 1 0.972871325383 1.43662408415 2.10503882987
24 1 3.39846845292 1.52334932311 2.09603664712
4 1 2.54259841252 0.0547864033242 0.379887012024
165 1 2.75048997867 3.79980744978 1.81492965656
5 1 0.459294205714 3.83421364523 1.74838712441
674 1 5.78651163419 1.60495493662 1.95689453496
676 1 7.42453333191 0.0738649060902 0.168775713831
675 1 4.98881090397 0.028304126161 0.185804506758
696 1 8.19837135295 1.62767336708 1.92391801643
1346 1 10.6174566285 1.63719100606 1.8984475591
1347 1 9.85879049759 0.0805227701768 0.13727015698
1366 1 11.3633273215 3.16740381042 3.67617431043
695 1 8.93528674036 3.18005894477 3.68726672283
1368 1 13.054384398 1.65358742669 1.88399247088
1348 1 12.2950515763 0.0764149971589 0.13560559647
2018 1 15.5453988251 1.56265449231 1.90662612016
2022 1 14.6834173661 3.82037766817 1.44770863006
2019 1 14.7454806084 0.0416932958531 0.130442858511
1367 1 13.7961421123 3.15634288193 3.67669197415
2020 1 17.3792411465 3.62167105729 1.53789575207
2023 1 16.2306422658 3.0834619862 3.69591142649
2534 2 19.3495249827 0.595363126093 2.98623343107
2683 2 18.5694236706 1.75649344604 0.0797884370891
2181 1 20.1752613112 3.09375165341 2.53800278411
2695 1 22.5056823424 3.04349533734 2.49386401153
2696 1 21.5969671925 0.751543265672 2.138738793
2703 1 23.2217150998 2.23427104294 0.362739950415
2689 1 20.8902364115 2.36754902465 0.306373414682
2697 1 23.9941182775 0.652653838219 2.13987185793
3361 1 25.6401485077 2.23210803245 0.356645069727
3366 1 24.9123221055 2.99785155478 2.54656934475
3367 1 27.3058488867 3.01383825012 2.57304547255
3368 1 26.4106732244 0.704999462434 2.16253991351
3369 1 28.8291954096 0.735198888142 2.15206083055
3375 1 28.0479479997 2.26220547659 0.362468063196
4033 1 30.4491592959 2.2520953141 0.36956891941
4038 1 29.6933879487 3.01186125969 2.57633549361
4040 1 31.2276265074 0.64065015723 2.09958668144
4039 1 32.0948219362 2.86882136212 2.55220412878
4041 1 33.5992744667 0.670103355029 2.08989693211
4047 1 32.812938409 2.15311508947 0.317618859614
4710 1 34.5599666624 3.00258047066 2.55457159322
4705 1 35.1090604617 2.18004920869 0.407170226346
4711 1 36.9966482326 2.86200744073 1.96339237922
4712 1 35.8687093483 0.561827279146 2.16071617213
524 1 38.1281101551 1.05921531975 2.58205619869
5241 1 39.0474456767 2.1279997074 0.383571050033
4707 1 37.0913973295 1.01382642665 0.254596619516
7 1 3.27923935485 5.47951020048 3.39952886145
11 1 1.9746273784 6.05419715422 1.27475895464
20 1 0.753538680847 5.40423872765 3.52005898209
13 1 2.34201755599 7.76026747766 2.88807001551
678 1 5.05222826271 3.92915766052 1.60918047401
30 1 5.7178621187 5.48619279529 3.34855621055
679 1 7.42012400706 3.91335497938 1.53274263388
12 1 4.24006971589 6.20138397387 1.1763132602
683 2 6.62122805132 6.19425487536 1.08446771406
682 1 7.34213651799 7.75581753512 2.83082167109
1350 1 9.82145752596 3.92473479169 1.47681691041
684 1 9.03253311388 6.21960755052 1.07921545841
702 1 8.12385178939 5.47304176483 3.27521048389
1349 1 10.5332538709 5.45531445613 3.24971753629
1355 1 11.4566083628 6.22003976738 1.04059320036
1353 1 9.77993527701 7.75366920513 2.83536648479
1351 1 12.2436305225 3.91925914212 1.45436913044
1374 1 12.9101784943 5.43383762555 3.25968965058
1356 1 13.8871860104 6.19874943242 1.05346498598
2021 1 15.1826417281 5.33347804582 3.25309529953
2025 1 14.5857560874 7.66384260357 2.88928238558
1354 1 12.2057007545 7.74054908282 2.83266110001
2167 1 16.2363218608 6.14844214422 1.08757796471
2845 2 19.5205120812 4.7262252143 0.84950712648
2183 2 17.3121684357 5.46036398838 3.13467397042
2208 2 18.0734121983 7.73975894807 1.10688790289
2028 1 20.2008872792 7.1309914535 1.36743850634
2693 1 21.011117201 5.52875534185 2.95803009023
2700 1 22.5650830735 6.95733936439 1.25142395657
2701 1 21.7294239362 4.66828287369 0.786176477953
2720 1 23.3723598561 5.34029543135 2.89241100125
2718 1 21.8234547533 7.75541897649 3.48617309783
2702 1 24.1199168245 4.55840067499 0.759222302814
3365 1 25.8009027165 5.32865956374 2.96218951586
3371 1 24.9691055385 6.88626928795 1.22976337948
3372 1 27.399492473 6.87507738774 1.24198632594
3373 1 26.5240604731 4.55392384149 0.77806384388
3390 1 26.6025279813 7.64886296048 3.44531479031
2719 1 24.2166244554 7.648883755 3.42911697979
3374 1 28.9256035685 4.56315399793 0.805041343558
3391 1 28.9530713173 7.64840578053 3.45597479768
3392 1 28.1758000952 5.31911972698 3.00801889161
4037 1 30.5693661082 5.2976134623 3.01321313873
4043 1 29.8165425805 6.8586670824 1.25548191301
4045 1 31.3069596076 4.53260717064 0.812896725536
4062 2 31.1496554897 7.60958102491 3.43408993788
4044 1 32.2239302124 6.83008852003 1.22628539468
4046 1 33.6517486224 4.42632760515 0.751507308407
4064 2 32.8496175221 4.95684222496 2.93440498087
4715 2 34.5901818046 6.62518283913 0.962824254585
4709 1 35.3791810226 5.68820108702 3.04027085321
9 1 39.3490823583 6.63119056086 1.50455359094
4717 1 35.9555857601 4.54624715383 0.864163393479
4736 2 37.8152260323 5.03173155744 2.61775701113
4716 1 36.993182576 6.71250832316 0.739960372975
4734 1 37.8330739314 7.20905398722 3.23053986132
4870 1 38.2960913642 4.49680976059 0.513763890168
15 1 3.32041769354 8.49592765057 0.729671609958
1 1 0.947717709033 8.77421328414 0.661677609721
172 1 2.53831237832 10.8317420547 0.23453820552
186 1 1.7507558111 10.292687952 2.42958375585
4868 1 0.0500362702505 11.1434820847 0.115498895045
185 2 0.000690508898799 8.67390900445 2.81859386843
677 1 4.85899372398 7.77257244583 2.91256498852
681 1 4.15145236825 10.0333725568 2.44636386452
673 1 5.77520166458 8.50701331222 0.70209770366
685 1 6.58603089674 10.0360413159 2.43387708665
844 1 7.42894820707 10.8160510106 0.244571763893
843 1 4.97849640687 10.80903672 0.246294015004
686 1 9.02852730937 10.0436278628 2.4161629591
687 1 8.23136945462 8.51267858411 0.663193077059
1345 1 10.6886411269 8.51526815336 0.644713925614
1357 1 11.481717625 10.0236680162 2.42718937287
1515 1 9.8507297931 10.8187396847 0.214517258767
1358 1 13.9640129524 9.94624646807 2.49813495179
1359 1 13.1813764452 8.48586056199 0.648640062982
1516 1 12.2332511849 10.7766687702 0.224704368752
2187 1 14.537249955 10.6697711945 0.272113395486
2029 1 15.8169052857 8.59128861565 1.01093072185
2026 1 17.0185533906 7.84608812641 3.13225286884
2699 1 16.7391018299 10.3386646553 3.27276425722
2202 2 18.7088801201 10.8188723945 1.85669691769
2047 1 16.8882192444 10.899705096 0.619405718786
2030 1 19.535506071 9.51906955904 0.0356663395724
2698 2 21.3231163363 9.29615333407 1.66200538998
2721 1 23.5269242415 9.24079330661 1.6617083389
2864 1 21.9968530333 11.5838785594 2.14241818636
2865 1 24.3833076222 11.5380182266 2.13660235992
3370 1 25.901844704 9.19275606826 1.67069178654
3536 1 26.765363181 11.4738320682 2.14113244
3393 1 28.3222414824 9.19498295087 1.66391474546
3537 1 29.209835264 11.4608576488 2.14094430158
4042 1 30.8604516606 9.14113938366 1.67702783889
4208 1 31.6726314844 11.4296922054 2.15386958284
4065 1 33.6798485843 9.27737773905 1.64515702279
4726 1 35.8388600506 8.30376705978 2.46594761671
4732 2 36.0736724644 9.18808592831 0.404618043937
171 1 38.9956202073 10.7669547516 2.53196791089
4737 1 38.0899289514 8.86767038774 1.18724235652
4880 1 36.2551650538 10.7895267435 1.96297899106
170 1 0.818164931188 12.6060623259 1.85578066935
192 1 3.34422108742 12.353390255 1.96437545284
319 1 2.71923692667 14.7020605871 1.60024231393
5027 1 0.36145785415 15.0152988455 1.75561927058
184 1 1.91395977317 13.7114881404 3.62385700478
842 1 5.81932633475 12.3374338088 1.9939820693
846 1 5.12371381399 14.6528223553 1.5651619218
847 1 7.56174464596 14.6665337388 1.54839843342
864 1 8.26627269982 12.3553939461 1.99506394422
1514 1 10.6876100598 12.3290231426 1.98802811317
1518 1 10.0423328677 14.6586817329 1.61210626999
2226 1 15.362664688 11.9294159992 2.14776164825
1519 1 12.4960831606 14.5844831771 1.53774957655
1536 1 13.0737118272 12.2640818914 2.04968932527
2186 2 14.9844344455 14.07058199 1.85278006207
2350 2 18.243028818 13.9525369092 2.72795560543
2196 1 19.4830892434 15.2826377517 0.782615021114
2206 1 17.1298867791 15.2350273472 1.10088602802
2351 1 18.5903686736 12.9510709843 0.605942429831
2189 1 16.2371023843 15.4370069696 3.41384109091
2191 1 20.4331475342 13.8808045221 2.58028166049
2862 1 21.1653494581 13.0737110083 0.413202558546
2863 1 22.819304042 13.8364187525 2.56771342007
2869 1 21.8758068187 15.3271432057 0.781724608437
2871 1 23.5090109415 12.9827393757 0.370165652523
2870 1 24.3323406686 15.2189599829 0.906200151025
3529 1 25.9218647262 12.9885019693 0.423848048205
3534 1 25.2327975969 13.7947841197 2.6700472477
3541 1 26.7554996739 15.2478241093 0.844649905369
3535 2 27.7613447711 13.7187405126 2.46288935311
3542 1 29.229252412 15.2605070601 0.808556861896
3543 1 28.3766719286 12.9588874274 0.346189195008
4201 1 30.8358356145 12.9585052512 0.370660791351
4206 1 30.1232488623 13.7663650354 2.578742935
4213 1 31.7445875834 15.2430821695 0.711283274493
4209 1 34.0268478164 11.6936716696 2.06071725523
4207 1 32.5664167438 13.7664320156 2.65371434326
4215 1 33.2250275158 12.8720227133 0.0917507913838
4226 1 34.6171596735 14.2711878171 1.29586779707
4890 1 35.1787887524 13.0936019766 3.57211665444
4887 2 37.9700865165 12.4410087819 1.56135565029
4898 1 36.9585682917 14.3150429887 2.17265090605
173 1 38.9567213272 13.833052307 3.55874782215
178 1 2.65110982138 18.4388406622 2.87802574851
198 1 3.52156922045 16.1768750568 3.36699664309
310 1 1.86055205566 16.9379958793 1.19588226596
183 1 3.55767117968 19.2074747462 0.727701192168
190 1 0.0363223271517 17.80351957 2.29426181126
179 1 1.19083943659 19.318027485 1.01105868841
180 1 4.3194139294 16.9265507377 1.11393145183
845 1 5.95323383013 16.1903772382 3.27525838928
849 1 5.13077431007 18.4843889289 2.79896720794
850 1 7.54093667828 18.4428140406 2.90979055631
851 1 6.77717432331 16.9701595015 1.04902555206
841 1 6.02594179992 19.2246620837 0.623356667089
852 1 9.18130019949 16.869942111 1.1608701307
870 1 8.42492888001 16.1640163213 3.33300849018
1517 1 10.9973641026 16.2362260919 3.42548245815
1521 1 9.95051494491 18.4614442168 2.8742989174
855 1 8.52297029094 19.1547769755 0.874791347786
1513 1 10.951145732 19.2242301026 0.793292046157
1523 1 11.5794997718 16.838427613 1.08430709432
2190 2 13.8382253968 16.6957618007 0.762619805539
1522 2 12.2193356407 18.3818174893 2.7484195321
1524 1 13.4255179143 19.0636517827 0.84465747917
1542 1 13.5731934229 16.0783894899 3.11635598799
2193 1 15.6466286171 17.4775414074 2.01665555486
2194 1 18.4709785586 16.3028159703 2.86956561375
2199 1 17.741352592 17.5858803922 1.04025492088
2867 1 19.4410795483 18.3228970545 3.29371002892
2215 1 17.127487711 18.9975619187 3.37197570195
3007 1 20.2556298731 17.5382123744 1.12441436271
2888 1 23.4724779978 16.0820085503 3.00309782016
2868 1 22.6521577798 17.5574545753 1.22336885701
2886 1 21.832150131 18.3646782886 3.37573809091
2861 1 21.0260243952 16.1503492536 2.97358447432
2887 1 24.2470174514 18.3365372742 3.42028968945
3533 2 25.9130207937 16.2313319289 2.93667856514
3539 1 25.0581676756 17.5704748597 1.22439033944
3540 1 27.4907953759 17.5481062277 1.26429326051
3558 1 26.6845657838 18.3646595507 3.45395689485
3559 1 29.1013968638 18.3247970962 3.46966383191
3560 1 28.3881298312 16.0356699673 2.99901727559
4205 1 30.9284705355 16.057199562 2.99401372927
4211 1 29.9169574418 17.5550129446 1.29652434065
4230 1 31.482513762 18.4218134325 3.52418455616
4212 1 32.3246191268 17.7664313625 1.16197562923
4232 2 33.4802792465 16.1189394378 2.08949690318
4883 1 34.7887529812 18.2472943528 1.39097212852
4231 1 33.8921969465 18.292044144 3.59193372412
4904 1 35.7722853871 16.3423571665 2.4731339338
4885 1 38.3115026792 16.3659398364 0.855284046449
321 2 37.2015064917 18.1670344483 1.76452489329
4886 1 37.982663435 16.2294861101 3.24583734861
181 1 1.9561533918 20.7974782278 2.5650998808
360 1 3.62734873544 23.1247589646 2.03758953105
353 2 1.31418284999 22.9319657918 2.30040309061
340 1 2.84483654845 21.5056910128 0.376548974093
169 1 0.437471822401 21.7247130626 0.70187249742
182 1 4.39042757085 20.7751068237 2.42395770778
853 1 6.81730572034 20.7447308764 2.39053458944
1010 1 5.97101129362 23.0335492665 1.95376953014
1012 1 7.61376936098 21.4037278752 0.165236577426
1011 1 5.18125221781 21.4807061374 0.198145527373
854 1 9.28103406011 20.7687098443 2.51915757881
1032 1 8.37422897941 22.9948139075 1.94238101706
1683 1 10.0331112144 21.529104427 0.32361316231
1682 1 10.8040086689 23.0282898774 2.01477525716
1525 1 11.8722955412 20.7685204277 2.50045846811
1526 1 14.5918907332 19.5645937161 2.99758318032
1527 1 14.4859198345 21.2187835769 1.35895552249
1684 2 12.3432808962 21.4043981273 0.293841474774
1704 1 13.1519778155 23.1150390929 1.92221773524
2354 2 15.5023145922 23.164823732 2.25656210401
2195 1 16.0572185219 19.6308865947 0.705722385448
3026 1 18.5238058733 19.7678836671 1.43482802902
2197 1 16.8976560965 21.2940395393 2.41583822757
2376 1 19.2420281067 22.0961276619 1.79743310856
2198 1 19.6644741152 20.595669426 3.60180386864
2866 1 20.9401529709 19.8539471926 1.65894087205
2889 1 23.3983228843 19.8410675878 1.66834027841
3032 1 21.7059659624 22.09661012 2.0719846882
3033 1 24.1563975837 22.1190930923 2.10941480725
3538 1 25.8287635749 19.8562504801 1.67214349009
3704 1 26.6007993447 22.1370839745 2.14018820529
4210 1 30.7173314066 19.8701612209 1.68152365381
3561 1 28.2725486104 19.839289238 1.70239982797
3705 1 29.0410073455 22.1459255554 2.14403044262
4376 1 31.478490222 22.1817057637 2.15227464491
4233 1 33.1636115713 19.9900368281 1.76587071495
4377 1 33.8969035179 22.2552965376 2.18775573355
4882 1 35.9190051029 20.3004670031 2.00836944902
177 1 38.4693079121 20.3186532795 2.49117330098
5048 1 37.3778301952 21.9561875579 0.244090225272
4901 1 36.1951248361 22.6258921069 2.21990335935
5043 1 38.5812566746 22.9305817293 2.38684504
343 2 2.76279612817 25.5366355521 1.63521562698
366 1 3.36053385577 26.8838119198 3.34564124888
5066 1 0.383588251251 25.0165814925 2.10860203417
338 1 2.03144118275 23.7405803921 0.161301854431
1013 1 5.83134866248 26.8419079612 3.32593642846
1014 1 5.09698745697 25.3102979327 1.52564672269
1015 1 7.5099887232 25.2776903922 1.51454834556
1038 1 8.26677392174 26.8224380261 3.27484412019
1685 2 10.7034318046 26.8743231209 3.26442763694
1686 1 9.93556814874 25.2663326415 1.48330445195
1702 1 11.5375852403 24.6610022843 3.68697977409
1687 1 12.3728482459 25.3594173941 1.4748548897
1710 1 13.1616220338 26.8680383628 3.28190170667
2358 1 14.8202720997 25.2552451687 1.52263933576
2357 1 15.5184056201 26.850500387 3.07870562416
3035 1 16.9341529634 26.4133417909 1.04712790655
2505 1 19.2112960388 25.838138249 0.843618399927
3046 1 18.3032303545 26.4383874518 3.26439167618
2359 1 18.5390732567 23.6063407446 0.0804310738543
2374 1 17.5916386111 24.3011635633 2.11873038774
2517 1 16.1229262745 23.7603095289 0.0170810565201
3030 1 20.0723758479 24.3039467589 2.44434274046
3039 1 23.3462918567 23.6276215104 0.320449470767
2364 1 20.9339624858 23.6005654028 0.291571557307
3031 1 22.5082587918 24.3491368649 2.5585702894
3056 1 23.287101341 26.6286119624 2.99181002896
3029 1 20.8032949303 26.5693674856 3.04384922439
3037 1 21.6458372226 25.8967246782 0.838457620601
3038 1 24.0940737771 25.9069013321 0.81909786999
3697 1 25.7415210387 23.6485375811 0.387818536239
3701 1 25.7553643244 26.6756392824 3.01909533688
3702 1 24.94415671 24.398575974 2.59072294894
3703 1 27.3893258542 24.4268994685 2.59231397996
3709 1 26.5308874935 25.9291177045 0.818674607113
4369 1 30.589904408 23.6672092669 0.380428354601
3710 1 28.9792181916 25.9394259299 0.819829029865
3711 1 28.1718971271 23.6490006293 0.383504142097
3728 1 28.2238478664 26.704143312 3.02502109826
4373 1 30.7183913585 26.7324359013 3.02569570074
4374 1 29.840257547 24.4518578012 2.5920697728
4381 1 31.4256560648 25.9677793829 0.802666859921
4383 1 32.9723285831 23.7130467119 0.376987423287
4375 1 32.3017732306 24.5183675853 2.59019002184
4382 1 33.8483732015 26.0414686698 0.701147325965
4400 1 33.2634794993 26.7720051752 3.01650441141
5045 1 34.7666364952 24.5992864408 2.52484216338
5046 1 35.2881314438 23.8822524616 0.30526188845
5073 2 39.2900991545 27.0270300102 2.60207022874
5055 2 37.2230331846 24.4541556469 1.23884574491
5041 1 38.6723500107 26.3760770409 0.506605960249
356 1 37.7105857659 25.3741539068 3.16254074704
5070 1 36.2345225779 26.6158086149 1.27410391866
4905 1 39.1141862556 23.9827270692 0.0913459208915
347 1 1.57996833076 27.5456008973 1.08984574926
337 1 0.904418959447 29.9745402753 0.521010043613
346 1 2.54589141154 29.257917973 2.70731992461
351 1 3.33872748374 29.9174059536 0.561408048069
5062 2 0.165158524077 30.0656746824 2.750586839
348 1 4.14310806001 27.6372349793 1.10866373627
1009 1 5.78914812833 29.8381746972 0.621977876149
1017 1 4.97401538654 29.1188636855 2.82252435441
1018 1 7.42681855829 29.0869058129 2.81563260922
1019 1 6.60694758668 27.5449518338 1.08438126624
1020 1 9.05951087194 27.5456689734 1.06584569184
1023 1 8.22874350379 29.8243797598 0.610632672754
1681 1 10.6502194672 29.8442656003 0.581028086221
1689 1 9.86274266941 29.1209919205 2.79512900249
1691 1 11.5044850769 27.5787262935 1.05974530561
1690 1 12.2969947648 29.1138636523 2.78897173828
1692 1 14.0997155031 27.612140442 1.13462758666
1695 1 13.0167564704 29.8807192772 0.563264256194
2361 1 14.6072567085 29.3136066924 2.9023875631
2353 1 15.2831112548 30.0233222842 0.546650294447
2366 2 16.3962824756 28.5990245856 1.83712283972
3198 2 18.7042198417 30.478459735 1.26775800468
2362 2 19.297801012 28.435741237 3.58215927401
2381 1 19.8996592878 28.1561480693 1.28826751605
3057 1 23.2823177384 30.4149934609 1.77570499219
3034 1 20.8781601288 30.3468421718 1.93320792994
3054 1 21.637484877 28.8239709294 3.58291323164
3036 1 22.3916606739 28.1899779804 1.33023149457
3055 1 24.1040902205 28.9123338546 3.48122249104
3706 1 25.7199003486 30.4722059454 1.696672293
3707 1 24.8768338049 28.193949631 1.2776739858
3708 1 27.3414881906 28.2004700655 1.25959735727
3726 1 26.5695571174 28.9599433085 3.45950779252
3729 1 28.1710271176 30.4640144777 1.69281567127
4378 1 30.6455915138 30.4863255976 1.6948641569
4379 1 29.8070126874 28.2153951354 1.26010560649
3727 1 29.0480707046 28.9771928251 3.46572072484
4398 1 31.5456597695 29.0103636781 3.46722094545
4380 1 32.2733462512 28.2489655034 1.25413680738
4401 1 33.1252854697 30.5605919295 1.65382365715
5051 1 34.6538603541 28.359888371 0.948294927314
4399 1 33.9982302437 29.1687391891 3.39756791259
5050 1 35.7981990184 30.6060957433 1.46783904058
5064 1 38.3022730004 28.6161370657 1.4922736905
5206 2 38.0471147625 30.177697721 0.0483916013467
5069 2 36.307142555 28.7246129568 2.49789519604
349 1 1.61542778057 31.7166973062 2.08039916711
528 1 3.22977199493 33.5857235624 1.97421524403
508 1 2.58717172086 32.227901239 0.0189897365647
5223 1 0.841758641963 34.0434080359 0.637402774017
520 1 0.309144000841 33.726858398 2.82912242885
350 1 4.04942476003 31.3515388644 2.43039399281
1021 1 6.55745087598 31.353914013 2.396128089
1178 1 5.74731989523 33.6092876065 1.95646725358
1179 1 4.98340742819 32.082081414 0.181725555449
1180 1 7.43952693685 32.0939029928 0.182923699391
1022 1 9.03410730964 31.3709351459 2.36247825038
1200 1 8.22326598097 33.6435753967 1.92495108112
1693 1 11.497128154 31.3977254274 2.33416207568
1850 1 10.6995925758 33.6745087304 1.90585396442
1851 1 9.88214254338 32.1321751718 0.153432075494
1694 1 13.9574861614 31.4956387511 2.30192959707
1872 1 13.1831292606 33.7457122272 1.87850199937
2522 1 15.6789269072 33.6155318835 1.86095297336
1852 1 12.3410374117 32.1546154529 0.119467638312
2523 1 14.8109685327 32.1956542301 0.0619910816858
2365 1 16.4620784417 31.2370980859 2.33786965521
2543 1 19.2024145548 32.2302607002 2.66086981204
2688 1 18.210865527 33.9874759793 1.38031427597
3215 1 19.4755030347 34.5211227781 3.53843424784
2524 1 17.3446111661 32.0444810499 0.122727961546
3194 1 20.689968359 33.8961345154 0.790236593747
3200 1 21.697768436 32.5348265419 2.34669110029
3207 1 23.1538438316 34.2173509797 0.502761871691
3195 1 22.384716872 31.8831182191 0.104589002471
2367 1 19.9118883813 31.8644192786 0.0555884106768
3201 2 24.2281381955 32.7387815388 2.05726691439
3865 1 25.6400489842 34.2969081868 0.398415448943
3872 1 26.5676976037 32.754323469 2.1218530093
3873 1 28.9778239483 32.7207942976 2.13923885679
3879 1 28.0631792684 34.2171081577 0.361420611667
4537 1 30.5376014 34.2154871453 0.383188872492
4544 1 31.4218084697 32.7816363765 2.14062384808
4545 1 33.8298580308 32.8259655696 2.02649882641
4551 1 32.9696129594 34.2992069034 0.334640743129
5209 1 35.4726669447 34.3276085388 0.414249769575
5216 1 36.2504861472 32.784433115 2.22740723067
5362 2 38.1277099669 33.6543519321 0.833889856752
5052 1 38.518662052 31.7199921491 1.87458345378
509 1 0.901047774604 38.5121402654 3.33892431394
511 1 2.6255248885 35.7348153274 1.34972267261
534 1 3.21050308287 37.2815796297 3.1810104409
510 1 1.86374797442 37.9528778169 0.999197038342
506 1 0.494341055335 36.3283019233 2.26458122113
516 1 4.20409965246 38.1310198235 1.06167591309
1181 1 5.69566652346 37.3917406633 3.27845300437
1182 1 5.0399914857 35.8993362847 1.48315145814
1183 1 7.4522839561 35.9193937553 1.46649453627
1187 1 6.61815164883 38.1815672704 1.04844759544
1198 1 6.65602514653 35.1698300799 3.64802604292
527 1 4.34183410809 35.0800645783 3.68147309645
1188 1 9.05130225472 38.2191801421 1.02195278591
1206 1 8.17455279847 37.4651665611 3.23455747347
1853 1 10.621381437 37.505816594 3.22467511258
1854 1 9.87920700325 35.9493038606 1.45796707215
1859 1 11.4926054134 38.2254976611 1.0147520891
1199 1 9.06048505766 35.1951705683 3.66320005197
1870 1 11.4981986648 35.2332689484 3.65674332832
1855 1 12.3115058328 35.9867018249 1.44428013474
1860 1 14.0685977768 38.2749507921 1.03020251109
1878 1 13.059108069 37.5535966237 3.19879839026
2526 1 14.7041417364 36.0384316845 1.45101474316
2525 1 15.4424080979 37.7196394155 3.37454681534
1871 1 13.9732961045 35.3103171784 3.65399343775
2527 2 16.8238947783 35.6952844666 1.08065942017
2531 1 16.9764303299 37.9229881321 1.39112783692
2530 2 17.9330866363 37.4582554317 3.41535376419
2542 1 16.4620562307 35.4718626757 3.50731152778
3199 1 22.1092049036 34.9865601267 2.64519796259
2550 2 19.8308437914 35.7354291834 1.56040798568
3205 1 21.7273659066 36.5106870488 0.790054882274
3224 1 23.1013588523 37.2476339143 3.01504489031
3197 1 20.6233585141 37.2414526755 3.21544208319
3343 1 19.8399570004 38.0089234665 0.470794772006
3204 1 22.0818759202 38.8387303456 1.33796965996
3870 1 24.8061147004 35.0263528287 2.58628114517
3871 1 27.2959219965 35.0491505832 2.55076427684
3206 1 24.0194000646 36.5227501193 0.848483611337
3869 1 25.5952898359 37.3396621685 2.96655203389
3877 1 26.456712623 36.621913866 0.793438903971
4542 1 29.7918280721 34.9787063034 2.62868941419
3878 2 28.98328924 36.267273177 0.912614416498
3896 1 28.0596947111 37.3443025589 2.94228820538
4541 1 30.5129997153 37.3215097417 2.94981734382
4549 1 31.2675036191 36.5518003682 0.730595272928
4547 1 29.5003614243 38.7750886497 1.10359332542
4543 1 32.2557151641 35.0663597102 2.56738765649
5214 1 34.7397008065 35.0997964106 2.5873283834
4550 1 33.6682686269 36.554764269 0.796623481253
4568 1 32.9694700791 37.3638762741 2.99063952154
4548 1 31.9402532442 38.8238077428 1.15584668976
5233 1 35.4306198601 37.458380265 2.97339322933
5219 1 34.3901640193 38.8089396123 1.18495896884
5215 1 37.1957642915 35.2166445361 2.13062863948
5213 1 36.0267344951 36.7450359527 0.766848708184
5240 1 37.848990414 37.4497663161 2.84116159365
5239 1 38.5619094547 36.1855838378 0.293094122087
5234 2 39.1199259593 38.4830568259 1.13564934559
515 1 0.981553396049 40.2836519168 1.01731829145
514 2 2.72314686125 39.6896253614 2.665322148
517 1 1.87001774795 41.9690314674 2.56767610986
519 1 3.37975908102 40.4514364692 0.581581657547
518 1 4.21317833403 41.9745995857 2.3866960688
1177 1 5.83228360491 40.497651087 0.640574471423
1185 1 4.9831714596 39.6713665036 2.8222862449
1186 1 7.37595295435 39.7438403208 2.77769533486
1189 1 6.58837772073 42.0407242019 2.38322838188
1190 1 8.97669182674 42.0626398778 2.34288654332
1191 1 8.25213676271 40.5126842162 0.587796084833
1849 1 10.6948787376 40.5095295195 0.570424807301
1857 1 9.77716923856 39.7675718824 2.74972062618
1861 1 11.3418782563 42.0795807182 2.30523523969
1858 1 12.159023888 39.7842972545 2.73894567435
1862 1 13.662927771 42.132079679 2.3196508006
1863 1 13.1576002626 40.519273462 0.552629369457
2529 2 14.4444182888 39.8923046876 2.66777921582
2034 1 15.9528059613 41.9230868083 2.31302209129
2533 1 16.0019509588 40.2614539676 0.504581556004
2548 1 19.3471814961 39.2029283841 2.70216920818
2549 1 16.9208378855 39.7382207798 3.00882475166
3202 1 18.1822744466 41.5377949769 2.33298000015
2690 1 19.6076529569 42.524876479 0.356908464459
2535 1 18.6439553927 40.0575402175 0.681893393125
2170 1 17.1326788236 42.5203222294 0.209433858794
3225 1 23.0375598388 41.1376083988 1.72237951076
3222 1 20.6603641706 41.2077829724 1.96613619959
3203 2 21.5680737212 39.5135445407 3.39178814163
3875 1 24.5805815388 38.8744447213 1.21188536462
3876 1 27.0179453997 39.008336334 1.28702489182
3223 1 24.0211530634 39.5417136394 3.37194796401
3874 1 25.4758984024 41.1540390738 1.75870691832
3894 1 26.4757942468 39.6205239563 3.41862348088
3897 1 27.947406731 41.2115536572 1.73578475424
4546 1 30.3647277608 41.0837252248 1.63983256459
4566 1 31.3247479611 39.6165287053 3.38223016887
3895 1 28.9071918836 39.6090571676 3.34814265251
4569 1 32.7567894949 41.1135835331 1.64498548434
4567 1 33.7506676927 39.6711155953 3.39885627949
5218 2 35.0227288424 41.0123304148 1.64082959644
5220 1 36.8112515417 39.0384062986 1.19392266771
505 2 39.2503050111 41.84597656 2.54145109983
5238 1 37.2398937186 41.5280865523 1.22583980538
5232 1 36.2551209145 39.8039364653 3.43391858982
3 1 39.4018731278 42.4058199027 0.239731477217
22 1 1.64254911381 3.06761661109 3.86941034889
18 1 2.49504907111 0.801713897319 4.29950951017
42 1 3.22578996029 2.33273646791 5.97308182185
16 1 0.679335368244 2.23973883932 6.11773586699
17 1 0.125518730283 0.833139647079 4.28629279595
694 1 6.5187914981 3.18220780136 3.71397374489
23 1 4.10632016294 3.1362224721 3.77456044113
689 1 4.90624097709 0.836632728657 4.15385269247
688 1 5.68064254957 2.35320066089 5.91070496152
690 1 7.3169196773 0.875398520513 4.13017379953
707 1 6.46946264583 0.0744884937591 6.32624740059
36 1 4.03650303004 0.033266715204 6.33594148175
714 1 8.08372876619 2.41143421934 5.88994681233
1360 1 10.4884123215 2.38402149485 5.87930152044
1361 1 9.71850940619 0.890893728181 4.09783144458
708 1 8.8825732173 0.105105504121 6.30931402811
1379 1 11.2844550691 0.0892173632658 6.30083259779
2033 1 14.5345780054 0.854996725898 4.07985009689
1362 1 12.1229727374 0.874621642543 4.08102461509
1386 1 12.8828945939 2.35910915389 5.88084970781
2036 1 15.2469619766 2.34366882432 5.83682744932
1380 1 13.667026136 0.0377842734037 6.27384806551
2694 1 18.5418320256 2.47311447779 4.0226180145
2058 1 16.9550064857 0.681319533028 4.03014854317
2038 1 17.5271325652 2.10092472804 6.17059385898
2051 1 16.0491725747 0.105495056985 6.23130446883
2704 1 18.9234202833 0.278383167906 5.50697424323
2692 1 19.8233243443 2.78081555554 6.09623651644
2182 1 20.9801670416 1.27691779996 4.47104027419
2707 1 22.5631629375 2.32321559559 6.49964259261
2715 1 23.3146471709 1.64038547551 4.22768199517
2713 1 21.7995780363 3.69814234439 4.67780121364
2709 2 24.0781150402 0.420653167848 5.92165599907
3364 1 25.7396832101 1.4835019329 4.36153944731
3378 1 25.0292540043 2.49414454711 6.4616371224
3379 1 27.4145294509 2.31832378054 6.54607521634
3385 1 26.5972075029 3.82631892089 4.76980588107
3386 1 29.0185232498 3.8304283139 4.78023000204
3387 1 28.1406402695 1.5032431904 4.36769176843
4036 1 30.5948589944 1.511625661 4.32142158407
4050 1 29.8434680343 2.29132669475 6.52083736747
4057 1 31.4424706178 3.82314700061 4.77070638008
4051 1 32.3189187638 2.26625216503 6.51127470309
4059 1 33.070716185 1.4662187065 4.33973793259
4722 1 34.9360711552 2.36225692127 6.50899179352
4058 1 33.8815548907 3.76414976548 4.73789603846
4708 1 35.579246076 1.45364676013 4.239418313
4053 1 33.8747068514 0.0228136357367 6.09790667911
6 1 38.8205909188 3.18412328009 3.75169135452
4729 1 36.2596202622 3.73182052912 4.27341772084
4725 1 37.6793158047 2.07515798901 5.41223273821
4747 2 38.7508116467 0.0258800558423 6.27730126923
4724 1 36.2653482486 0.0680214870971 6.09458935634
10 1 1.86498114119 6.92251140433 5.17287434766
21 1 2.45597008833 4.5742168447 5.55970807273
4751 1 1.03559967178 5.98930545691 7.29082244931
47 1 3.32959352769 6.19117755732 7.22953559834
29 1 4.19978614168 6.94044997099 5.07969208354
692 2 4.8205386267 4.55070655275 5.53354574925
693 1 7.28057065014 4.70382776805 5.46368445826
700 2 6.61904471024 7.07916285897 5.03808084921
691 1 5.70510298143 6.19875553076 7.21774253513
701 1 8.95893327649 6.97695919429 5.03506827713
719 1 8.08806551872 6.21674399112 7.22545407132
1363 1 10.485974486 6.22590423096 7.24847725881
1364 1 9.70399286206 4.68775671585 5.4684065928
1372 1 11.3578173524 6.9564939146 5.03024294569
1365 1 12.1390223477 4.67146698261 5.47641144986
2035 1 14.5967828698 4.61493144732 5.50592233665
1373 1 13.8186538511 6.89810463106 5.06343954106
1391 1 12.8581690352 6.22128749932 7.26472415701
2062 1 15.2209145034 6.15871857475 7.22422262489
2064 2 19.591469522 7.6767211555 3.94714068991
2039 1 17.318626961 4.39671682592 5.41404418576
2027 1 16.3243187342 6.54882862226 5.010722753
2063 1 17.6050180692 6.21678452146 7.22688593567
2045 1 19.3021872392 7.53509598225 6.56313401279
2040 2 19.7020000835 4.55628258341 4.47041322391
2712 2 22.798025401 6.02906849325 4.96359127347
2736 1 23.527721535 4.48572860922 6.90952334308
2705 2 21.2864194927 4.22593522614 7.09347041709