ITEM: TIMESTEP
6000
ITEM: NUMBER OF ATOMS
5376
ITEM: BOX BOUNDS pp pp pp
0.0 39.5600404449
0.0 42.7297273569
0.0 37.0050293879
ITEM: ATOMS id type x y z
2 1 0.882855481326 1.95464513063 1.89853271953
24 1 3.38487656462 1.88225907972 1.94408504524
22 1 1.79663204971 3.43715237932 3.64862079111
4 1 2.70895207344 0.513582766245 0.196959929378
674 1 5.80323244754 1.79959711308 1.90010102488
694 1 6.5973723342 3.34013955801 3.66266648557
676 1 7.44197275045 0.210797271257 0.144808209904
675 1 5.04878747918 0.233091138176 0.120001298191
23 1 4.19863893473 3.41524779151 3.67291538963
696 1 8.21732156614 1.76175931191 1.89977138
1346 1 10.6433938395 1.73636287166 1.89129477989
695 1 9.00505589955 3.2807045561 3.66380039916
1347 1 9.85408572147 0.191369677466 0.135737635237
1366 1 11.4126864456 3.246606613 3.66068395571
1368 1 13.0949601866 1.69784250509 1.88348746275
1367 1 13.8039799434 3.22023774607 3.62865787542
1348 1 12.3081072446 0.10783090757 0.165436715073
2018 1 15.6278482175 1.74065906322 1.89833985298
2019 1 14.7949218743 0.0508184422349 0.157768443592
2020 2 17.9738375791 2.04075242293 0.623262793946
2694 1 18.3033613003 2.26561739408 2.80409117541
2534 2 19.5497849159 0.0610706582694 2.30110061386
2181 1 19.5943601445 3.87393043514 1.37240927664
2695 1 22.3113259358 3.28106387797 2.41717282818
2696 1 21.5802803983 0.939653550742 2.076782194
2703 1 23.2829423497 2.28864482979 0.322667207963
2689 2 21.0452026858 2.33675630917 0.167039509554
2697 1 24.0593931842 0.821875641285 2.01720008906
3361 1 25.6626977461 2.17816481148 0.374574786199
3366 1 24.7960360547 3.0561492278 2.59746936681
3367 1 27.2574521107 2.93834165804 2.58110552546
3368 1 26.4432100112 0.633845850497 2.13985939028
3369 1 28.8615030769 0.653304261038 2.16252410008
3375 1 28.0636973167 2.12638262959 0.360343540244
4033 1 30.4709722512 2.12498360851 0.370721852826
4038 1 29.7154010122 2.93802621927 2.59643635911
4040 1 31.28590919 0.601126179923 2.1486875643
4039 1 32.1478447558 2.88935475891 2.59667141288
4041 1 33.7120455233 0.532615996894 2.1407821407
4047 1 32.8548496469 2.00406691966 0.36326453606
4710 1 34.5582685384 2.82276600822 2.5412765399
4705 1 35.1998094324 2.17904079245 0.339071930733
4711 1 37.4779497814 2.72686187863 1.75236377767
4712 1 36.0898107022 0.772055111638 2.24321722956
524 1 38.4455586368 0.536946466891 2.34720838726
6 1 39.0031392281 3.28945675951 3.56077863127
4707 1 37.2184631475 1.09556211729 0.00452845650933
165 1 2.64290310588 4.14707197768 1.50345492014
7 1 3.31405101825 5.75287993695 3.1940776527
11 1 1.86747384714 6.3612850689 1.04986096479
20 1 0.717914884794 5.78289226197 3.24328694436
5 1 0.256684602666 4.25744286846 1.45011517961
678 1 5.02198964819 4.12141145423 1.46674020431
30 1 5.77701107049 5.65175288307 3.23285248455
679 1 7.41322163449 4.06175798824 1.45753351798
12 1 4.26019884109 6.40557929909 1.04618080633
683 1 6.62871111463 6.35245893907 1.02810624362
1350 1 9.81329635415 4.01406366897 1.44171423668
684 1 9.00198716738 6.30529314421 1.01656994385
702 1 8.18815988404 5.58181161686 3.23494495155
1349 1 10.5995966412 5.54019204755 3.21589043285
1355 1 11.3897961399 6.27763678937 0.988962549574
2022 1 14.5909907589 3.96583659729 1.39835756225
1351 1 12.2094090554 3.9852840024 1.42547009986
1374 1 12.9950746553 5.55133967028 3.21028019151
1356 1 13.7548745017 6.27132560143 0.932066061962
2021 1 15.2984681381 5.49277218492 3.1960308615
2167 1 16.8957908912 3.94861733725 1.55092250073
2208 1 16.0601585697 6.32781477668 1.07453832037
2845 2 18.1515322163 5.61930590843 0.860872383691
2183 2 18.2834793827 4.40575510731 3.66531110888
2028 1 20.1764691942 6.80521782359 1.31218043913
2693 1 20.8256418716 5.34583421066 3.0003231269
2700 1 22.6203584335 6.87060771883 1.3274543217
2701 1 21.7230757278 4.74738432673 0.651878351686
2720 1 23.349255847 5.35270487911 3.03175531889
2718 1 21.8385269195 7.56386198643 3.58170974824
2702 1 24.1246177371 4.56064417729 0.795844481044
3365 1 25.8375670797 5.25590653702 2.99348624795
3371 1 25.0235980686 6.79886693131 1.27342713538
3372 1 27.4339368979 6.74734972657 1.26862073706
3373 1 26.5301117323 4.46154935806 0.789534738713
3390 1 26.7257945256 7.54326039323 3.49468678299
2719 1 24.3325985752 7.56031735443 3.50033743828
3374 1 28.9194106961 4.4299896893 0.808635607026
3391 1 29.1707141204 7.51100223197 3.49019336478
3392 1 28.2559759937 5.21902565599 3.0271107781
4037 1 30.7212149496 5.23568988902 3.04797506426
4043 1 29.8285467422 6.72208008502 1.27544058233
4045 1 31.2729209307 4.36057361536 0.824515138868
4062 1 31.6802254347 7.50375768221 3.54690290748
4044 1 32.1598286258 6.61467154655 1.24745897033
4046 1 33.5854458596 4.20101247116 0.719953386148
4064 1 33.1964762376 5.17394636652 3.08617093093
4715 2 34.3641433837 6.27161669875 1.0195940938
4709 1 35.6242088651 5.83363191156 3.18296448654
9 1 39.0371297428 6.73871139009 1.29157307871
4717 1 35.8988615103 4.39855359457 1.02177581832
4736 1 37.7449416856 5.00967274762 2.43301771146
4716 1 36.4911147037 6.91183032396 1.12854886663
4734 1 37.6436577354 7.17208127437 3.25735163547
4870 1 38.0731697808 4.95506308811 0.000973469042514
13 1 2.499102452 8.0778486337 2.80315946099
15 1 3.39381729064 8.63310373623 0.567049161902
1 1 1.0816006098 8.60854858037 0.863404075675
172 1 2.43700927691 10.9297163776 0.33748585037
186 1 2.2558098615 10.9656745333 3.23226904806
185 2 0.0314592936827 8.23965366864 3.07016886809
681 1 4.20150625048 10.1842299442 2.29652783163
677 2 4.91071248369 7.95936561592 2.70010034705
682 1 7.379535998 7.85435169562 2.80901036043
673 1 5.798889845 8.63960555364 0.558401610346
685 1 6.58745191821 10.1313769329 2.36067952856
844 1 7.3411698393 10.8805380591 0.142833221995
843 1 4.91081451365 10.9223242864 0.151323140499
1353 1 9.80744348114 7.82648568717 2.77210461864
686 1 8.99342188667 10.1091636126 2.35178602288
687 1 8.18478123852 8.59010110556 0.589828872516
1345 1 10.592860906 8.57373162511 0.551029624398
1357 1 11.396675932 10.088286422 2.312177852
1515 1 9.72854364751 10.8657188372 0.118078428907
1354 1 12.2551878816 7.80017938264 2.7218154435
2025 1 14.6935158709 7.8289861633 2.60223490597
1358 1 13.8017581978 10.078871946 2.28048347951
1359 1 13.0021647828 8.57064718121 0.500990927785
1516 1 12.0760927806 10.8441985984 0.0714874379982
2187 1 14.3703169541 10.8941287766 0.0862276816963
2029 1 15.3530423328 8.81157893301 0.516397302118
2064 1 19.398766798 7.91616829292 3.38993161593
2226 1 16.239035295 10.0220192971 2.31403165156
2699 1 17.7128257603 8.0434208747 1.64841688062
2202 2 18.504154761 10.2925789491 2.41933149577
2188 2 16.4919619917 11.2852497828 0.117035080538
2698 2 21.3683966419 9.11925487842 1.86594029411
2721 1 23.5832842099 9.09994017743 1.73028503005
2864 1 21.959744019 11.4036648446 2.21439992387
2865 1 24.3246448123 11.3945358695 2.11139459226
3370 1 25.9402147795 9.06503815491 1.70266361134
3536 1 26.7114208688 11.3547891373 2.09032611554
3393 1 28.3497760751 9.04275979237 1.71643582391
3537 1 29.0850075847 11.3694073518 2.10670042641
4042 1 30.7838417964 8.99410937365 1.66038341107
4208 1 31.5168311918 11.4749456389 1.94878114304
4065 1 33.3086853503 8.62757394609 1.79395773017
4209 1 33.969799894 10.9504075071 2.05617985192
4732 2 35.5721913565 9.1499095705 1.02021028139
4061 2 32.125549769 10.0101386419 3.47277916874
4726 1 35.6832547705 8.60412186355 3.24364437041
171 1 39.0450136034 10.7016374262 2.38112873751
4737 1 37.8892349927 8.90406794877 1.26864533344
4880 1 36.4856457473 10.7285627655 2.26384294813
170 2 1.08520858281 12.4111871891 1.93737069577
192 1 3.46345084332 12.6201834465 1.95893626477
319 2 2.79559919921 15.0252049082 1.35313183878
842 1 5.81350101779 12.4368719405 1.9352868408
846 1 5.09120603414 14.776845868 1.48185113408
847 1 7.47883693152 14.7203437819 1.45587015954
862 1 6.7427539898 13.9411154101 3.66530849419
864 1 8.21781644449 12.4088244752 1.90978285434
1514 1 10.6250041896 12.3883752137 1.87333660592
1518 1 9.85826212467 14.7190855076 1.44340231265
1534 1 11.5107328935 13.9197541599 3.60840637319
863 1 9.12084857755 13.9427140033 3.64771948167
1519 1 12.1946967298 14.6706056771 1.38712593154
1536 1 13.052549591 12.3427094287 1.80145724467
2190 1 14.5044491941 14.6720616409 0.929476594667
1535 1 13.8670034974 13.7625183838 3.49449889572
2186 1 15.5220445984 12.6105869177 1.87125292192
2189 1 15.8127601978 14.9682609187 2.92256159159
2350 2 17.7238250997 13.6074482969 2.68050800448
2196 1 19.324235654 15.1315883878 0.869570805771
2206 1 16.9635941709 15.0783289866 0.86234853296
2351 1 18.1968335543 12.9963212932 0.496248904828
2191 1 20.1436806967 13.6617509679 2.67752137505
2862 1 21.0017227431 12.8944461996 0.58513881542
2863 1 22.621554744 13.6711084269 2.57969677148
2869 1 21.7242542583 15.1402883039 0.796094116709
2871 1 23.3727626379 12.8501080232 0.33669783433
2870 1 24.1583044807 15.1074162445 0.812611317717
3529 1 25.8050489413 12.8627102571 0.338953802056
3534 1 25.0544653516 13.6717034037 2.53819173371
3535 1 27.4976069513 13.6372962244 2.56309573203
3541 1 26.5913813125 15.1372275408 0.792266706418
3542 1 29.0330221 15.1508793194 0.774581416483
3543 1 28.2279090576 12.8596068574 0.337885875278
4201 1 30.650678624 12.8708215418 0.250328232285
4206 1 29.974594049 13.6434614129 2.52735137236
4213 1 31.4641474882 15.0986787744 0.748081526969
4207 1 32.5260611454 13.6501306063 2.41189141641
4215 1 33.0703236323 12.6965536304 0.13343386376
4226 2 34.8288372911 14.1166007082 2.9719655016
4214 1 33.9388026145 15.1485470791 0.898388329254
4878 1 35.2112597119 12.9173949358 1.08542253395
173 1 38.9195670267 13.7385549333 2.90591136417
4887 2 37.4535232293 12.5853981127 1.67158430537
4885 1 36.8504516306 14.8184007663 1.49377242854
5027 2 39.3317532724 15.4516616169 1.52165611924
318 1 39.0027709235 13.6334764623 0.156336810781
178 1 2.3675165618 18.5567852465 2.84072549579
198 1 3.55875633356 16.2581950218 3.25840263177
184 1 1.19123914582 16.0951793988 3.19984423391
310 2 1.750145988 18.1270023865 0.538733721693
180 1 4.16149654459 17.0914361492 1.00086840498
845 1 5.95880912923 16.2445632539 3.23358259928
849 1 5.01322974271 18.4753423972 2.80015922515
850 1 7.49263029577 18.5326451654 2.76362365227
851 1 6.67501540301 16.992512568 1.02437376517
841 1 5.92957393585 19.24132944 0.622579223376
852 1 9.15372390084 17.0121716095 1.00192786945
870 1 8.38069533007 16.2498059887 3.19071657575
1517 1 10.8468337609 16.2604394826 3.12567420445
1521 1 9.92388183069 18.5324132684 2.71093912179
855 1 8.35555649895 19.3019243365 0.574778208308
1523 1 11.6565839077 17.064519556 0.842182724348
1513 1 10.7689494698 19.3327699056 0.526134681001
1522 1 12.2871935746 18.4924460385 2.78535274848
1524 2 15.3002230011 16.6815048196 1.53655353109
1542 1 13.3527976272 16.1674867001 3.03406877081
2193 1 14.6854019645 18.5719571798 2.72324545334
1527 2 13.192104915 19.3495211135 0.875988617512
2194 1 18.5050089889 15.8101610962 3.0904040956
2199 1 17.4511950789 17.4599688412 1.53904570424
2867 1 19.0332117874 18.1708880445 3.50726911599
3007 1 20.00070983 17.4056919464 1.34629921216
2888 1 23.381328564 15.9332406702 2.98347782132
2868 1 22.4565221504 17.4135635834 1.24148544789
2886 1 21.6073370749 18.2132510123 3.4270650485
2861 1 20.9456612442 15.9082803289 3.01111574547
2887 1 24.1027173881 18.2071580644 3.40797981987
3533 1 25.8204317615 15.9169069963 2.99824590182
3539 1 24.8969839679 17.4036375135 1.22559297019
3540 1 27.332222269 17.4312927002 1.23664283117
3558 1 26.5585719157 18.2102560359 3.44312667588
3559 1 28.990154421 18.2308779648 3.44139563679
3560 1 28.2547221752 15.9300665886 2.98632131589
4205 1 30.6902925464 15.9471108014 2.9295164783
4211 1 29.7459794642 17.4674711744 1.21425155618
4230 2 31.4204823194 18.2510212418 3.43344412643
4212 1 32.0575260123 17.4854366789 1.00687568348
4232 1 33.0486234475 16.0270582202 3.02315337513
4883 2 34.1423056857 17.438574934 1.6308591128
4231 1 33.9637327474 18.3150469189 3.67563394556
4904 1 35.5981690677 16.2965930597 3.11036370944
190 1 39.3932242573 17.7492969424 1.93975258291
4886 1 38.2270784571 15.9961499273 3.51948274484
321 2 37.1305264888 17.3091764731 1.80892553103
183 1 3.52378682301 19.4922980231 0.673075482084
179 1 0.613270826937 19.9169559457 1.09848098455
181 1 1.7303168962 21.0260740415 2.74482697073
360 1 3.31973751462 22.7154181905 1.83402547419
340 2 1.21235441582 22.0577727702 0.55764616943
353 2 0.48229372465 23.2136426321 3.63702633852
182 1 4.25288431231 20.7154568374 2.51061844766
853 1 6.68425509169 20.8368848797 2.34001019484
1010 1 5.79937511959 23.108633869 1.91435711481
1012 1 7.54585191818 21.6017725748 0.157543354015
1011 1 5.0853957416 21.4027924158 0.206961593871
854 1 9.14573402267 20.8297629854 2.31007219595
1032 1 8.2837948101 23.1160104856 1.91870247883
1525 1 11.5958807839 20.8479765813 2.2716217469
1683 1 10.0038617065 21.6055968691 0.115334494757
1682 1 10.7301184906 23.1360359765 1.88527691362
1526 1 14.1436969503 20.9422009493 2.3271616683
1684 1 12.4722268596 21.6574075974 0.106039246322
2195 1 15.7030800982 19.8738762981 0.856786597181
1704 1 13.1285141196 23.1881153047 1.84370737774
2215 1 16.7252945962 19.5695231158 3.2997846438
3026 1 18.3787019573 19.7329537447 1.59964419353
2197 1 16.7943612388 21.7196704212 2.22806111746
2376 1 19.2053374815 22.1335534766 1.93799774555
2866 1 20.7828209673 19.7121662314 1.69423158696
2889 1 23.238914602 19.692756696 1.64590377665
3032 1 21.6245437436 22.0062518129 2.08802370674
3033 1 24.057695423 21.9863992416 2.05804512319
3538 1 25.6778139491 19.6910885195 1.67485502638
3704 1 26.5037946149 21.9725955522 2.09396846393
4210 1 30.5337916042 19.7816754675 1.77270654734
3561 1 28.1141694725 19.7260183997 1.70351002185
3705 1 28.9648013193 21.999400499 2.14030211906
4376 1 31.4673631814 22.0351740631 2.17487059705
4233 1 33.038955922 19.771304915 1.75618490484
4377 1 34.2974452315 21.9029552455 2.1609517967
4882 1 35.5566653307 19.4600544293 2.02583808415
4371 1 32.1861960788 21.3596896161 0.0174553333621
4884 1 37.8074979295 19.5315357607 1.05892914507
177 1 39.0915581236 19.7273244331 3.22771263754
5043 1 38.816615917 21.9390508253 2.13105441323
5049 1 36.9348496009 21.0486699524 3.52737480748
5048 2 36.6111989171 21.615150028 1.21602939169
343 1 3.1368321372 25.2939315634 1.30694759207
366 1 3.45695391945 26.9559855007 3.20288053683
5073 1 1.01597198905 26.8996497056 3.1824492871
5066 2 0.916240611563 25.229326722 1.29438670456
358 1 2.08535232965 24.6660129023 3.42576489825
1013 1 5.91227780981 26.9584113235 3.3502901949
1014 2 5.356981518 25.616828142 1.64190428447
1015 1 7.56257770161 25.4170829662 1.48772217713
1030 1 6.71774742177 24.6244982924 3.68212419457
359 1 4.32028983393 24.5612567 3.60337435074
1038 1 8.32869963111 26.9460693122 3.3003054941
1685 2 10.6647180943 26.8492014928 3.29286636677
1686 1 9.92802219692 25.418617245 1.47037676087
1702 1 11.5757870924 24.6594316765 3.64156388079
1031 1 9.12647321034 24.6424848721 3.67342491649
2354 2 15.3613078575 23.39153427 2.04723138761
1687 1 12.3171374673 25.5285879315 1.47849601302
1710 1 13.1426363349 27.0101557157 3.28609870487
2358 1 14.6929959725 25.6298949789 1.50366726258
2357 1 15.5538143585 26.9387344325 3.24973319403
1703 1 14.0331546853 24.739190093 3.6702704122
3035 1 16.9246094898 25.3786009694 0.994683489246
2505 1 19.5141672335 25.8562961947 0.11455505178
3030 2 18.8657524338 24.663313966 1.85866403357
3046 1 18.2591967487 26.8703340984 2.29952944134
2374 1 16.7072492011 24.5843798392 3.49496872089
2359 1 18.3035565809 23.466139149 0.00531949343195
3039 1 23.2109495323 23.5420532237 0.299375662452
2364 1 20.7764488637 23.6878289743 0.383965762764
3031 1 22.3715610135 24.264029419 2.38884200716
3056 1 23.1476327269 26.4873621785 2.96526001306
3029 1 20.6422636762 26.0928663391 2.44382233927
3037 1 22.1009449643 26.3079741397 0.689126604959
3038 2 24.2061883271 25.6905376779 0.766305444553
3697 1 25.6463182122 23.4875599833 0.371214756227
3701 1 25.5333969285 26.5545818963 2.98970708509
3702 1 24.814883815 24.2347264247 2.61760405134
3703 1 27.2347287683 24.2475842222 2.60290940064
3709 1 26.4847241601 25.7544010498 0.838373651441
4369 1 30.5384591641 23.5414588157 0.401064522228
3710 1 28.8801319297 25.8100757289 0.824928663958
3711 1 28.0897877795 23.5090276418 0.388429146719
3728 1 27.9479031118 26.5551954961 3.01146414202
4373 1 30.3291688107 26.6106659158 3.00669048862
4374 1 29.6424868448 24.2925095775 2.58538965064
4381 1 31.3002129957 25.8721128287 0.83960545696
5046 1 35.3047559981 23.7202989292 0.49003933405
4383 1 32.9857917385 23.5330762244 0.541112311153
4375 2 31.9987238017 24.4210029663 2.63595691592
4382 1 33.747839203 25.9333212216 0.921743888866
4400 1 32.6264423519 26.7217440277 3.02580421084
5045 1 34.4252911829 24.3950439026 2.67090128663
5087 2 34.7971358382 26.6843767911 3.10575454759
4901 1 36.7358860655 23.6253167538 2.48676154414
5055 1 36.4386012391 26.255118856 1.70626571215
356 2 38.08219845 25.6798079488 3.31443226684
5041 2 37.2936050965 24.7331158844 0.337950649002
337 1 0.81223513799 29.7318843956 0.987849410009
346 1 2.47681037927 29.3876454931 2.85097831206
347 1 1.91159563412 27.4902513618 1.09150560817
351 1 3.36280730826 29.8336160178 0.66882169604
5062 2 0.141030693198 29.387245334 3.25338597369
348 1 4.23987361292 27.6721573193 1.05805338614
1009 1 5.77402600485 29.9780082305 0.652261067045
1017 1 4.97928251006 29.1595175903 2.86733388657
1018 1 7.46120647453 29.1976630245 2.85849629778
1019 1 6.66468266936 27.7249734725 1.09194714076
1020 1 9.07457784951 27.7025924073 1.10074630429
1023 1 8.23366602517 29.9807115617 0.644420832418
1681 1 10.6787947281 30.0190887361 0.635718898949
1689 1 9.9275705932 29.220678751 2.84526062068
1691 1 11.4907797959 27.7805128582 1.1435917716
1690 2 12.4608335544 29.3814137119 2.85559867232
1692 1 13.9410186341 27.8768565083 1.20650153377
1695 1 13.1303238374 30.0961107797 0.693090937763
2361 1 15.0063348658 29.3497491299 2.97218219745
2353 1 15.6344330642 30.2301441118 0.724676207736
2366 2 16.3871173174 27.8939420226 1.39955243489
3198 2 18.058093004 30.9025979844 1.09132085772
2362 2 19.7901792024 28.3963185369 2.84108460409
2381 1 20.0160270994 28.1511932264 0.430055011207
3057 1 23.1677276164 30.404606397 1.54622349145
3034 1 20.6029386332 30.4599927251 1.41889295853
3054 1 21.9131975573 28.4121908277 2.07661530727
3055 1 23.9264755621 28.8444870723 3.34641279543
3706 1 25.5815626112 30.3330271348 1.63165069807
3707 1 24.5199977857 27.9858812984 1.18021407994
3708 1 27.2021902267 28.0578779855 1.24173135483
3726 1 26.333689983 28.8310185171 3.38714454456
3729 1 28.0055563962 30.3707141464 1.62965523269
4378 1 30.4374622356 30.4035746652 1.65725899326
4379 1 29.6251672082 28.1051684396 1.20610596247
3727 1 28.7826661602 28.8576540769 3.40461961652
4398 1 31.2207627935 28.8672070973 3.39185045631
4380 1 32.0309527387 28.1445637584 1.1195629132
4401 1 32.8874056039 30.4053910271 1.65366860179
5051 1 34.3914086087 28.2376839124 1.28933837971
4399 1 33.6118957394 28.9498845969 3.46846626789
5050 1 35.3082664966 30.4880422122 1.77630907241
5064 1 38.5400475866 27.8364424797 2.11408919052
5070 2 36.6463106975 28.6137385838 1.31663951286
5069 1 36.1061173253 28.7919436631 3.47406808184
5206 1 37.8515618463 30.5373031403 1.83322999459
349 1 0.560049749829 31.4858484533 2.65397125495
528 1 3.53858957113 33.6406986363 1.97336257068
508 1 2.30269307592 31.8677126816 1.05637638382
5223 1 0.941687564998 33.723868321 1.68906639263
5222 2 2.03688786467 34.7369753014 3.38380167282
350 1 4.20261075125 31.3592991716 2.46250053003
1021 1 6.60721676262 31.4737520962 2.39972577072
1178 1 5.82889473705 33.7573146878 1.95001824533
1179 1 4.78938608252 32.2748802442 0.242714669891
1180 1 7.31359008994 32.2644678629 0.194010215031
1022 1 9.03590260544 31.4799843915 2.39968861732
1200 1 8.19121431169 33.7789385782 1.93858627163
1693 1 11.4532187962 31.5430657005 2.40627678488
1850 1 10.5696468245 33.7987436543 1.95292641494
1851 1 9.77996049312 32.2758002979 0.185141923097
1694 1 13.9384508901 31.5406755315 2.44398733728
1872 1 12.9580704376 33.8214549215 2.03333403321
2522 1 15.310928762 33.9496470877 2.03103655566
1852 1 12.2461865413 32.304409713 0.214194562335
2523 1 14.7298362146 32.3820130968 0.285908817523
2365 1 16.3976244865 31.7726965239 2.58571831193
2543 1 19.1586570756 32.8880041226 2.09568625346
2524 1 17.1675339408 32.840415971 0.560383131419
2688 1 17.5309450929 34.3816239227 2.47449973009
3194 1 20.7696287408 34.3538065337 0.255517122497
3200 1 21.5350189919 32.7687267684 2.06387331677
3207 1 23.1596689416 34.1966282883 0.306260252371
3199 1 22.3771089559 34.9568809868 2.51736307186
3052 2 20.186532061 31.4978657791 3.5011088965
3201 1 23.939342568 32.6567125168 2.07876988197
3865 1 25.5839785747 34.2303103972 0.300465421672
3872 1 26.371656074 32.674204071 2.07429405289
3870 1 24.8282188452 34.9532962619 2.51574880318
3873 1 28.7960734351 32.658629455 2.08287307952
3879 1 27.9841332206 34.2418230714 0.301939623034
4537 1 30.4150507072 34.2331397357 0.345135295018
4544 1 31.2278840203 32.6864076016 2.10417759732
4542 1 29.6621296762 34.8876545705 2.65132771558
4545 1 33.6636676322 32.6780931939 2.17719365304
4551 1 32.8668755594 34.2000903868 0.401242730456
5209 1 35.3834642595 34.2138322521 0.520864603621
5214 1 34.4970884155 34.9371461469 2.63758938493
4543 1 32.0841805357 34.9396956304 2.59942865468
345 1 39.1960254148 31.8173526293 0.299736882217
5216 1 36.0367422164 32.691855433 2.32739757328
5362 1 38.3467813871 34.4662865763 0.595513726799
5052 1 38.3028753379 33.0127553752 2.60849636996
5211 1 36.9279705969 32.0983656552 0.132793132723
509 1 0.542220496275 38.1532819034 3.17831171309
511 1 2.76220116806 35.8276486307 1.56794454095
534 2 3.26401175873 37.7392960071 3.27146111705
510 1 1.55596776327 37.6681244806 1.19655661387
506 1 0.0768191197871 35.7105490882 2.70775050558
516 1 3.97735563419 38.4089572936 1.06746108417
1181 1 5.66520883267 37.6229008947 3.303763406
1182 2 5.12360074205 36.0575536091 1.4038975509
1183 1 7.38864200542 36.0888092965 1.47490691203
1187 1 6.46767977354 38.346311512 1.0498677762
527 1 4.27176942533 35.3725545353 3.58723032235
1198 1 6.56040595256 35.3558495744 3.69013020427
1188 1 8.88938413594 38.3450281965 1.00671351065
1206 1 8.11951289871 37.6317687668 3.26278563102
1853 1 10.5879689346 37.6514124511 3.24629736175
1854 1 9.75306028727 36.099722735 1.4730174147
1859 1 11.2701978369 38.3725515104 1.00607750877
1199 1 8.94264012442 35.3496677073 3.68654918153
1855 1 12.1105116241 36.0907079124 1.46905959791
1860 2 13.4262111088 38.1158956464 0.566191609244
1878 1 13.0831985692 37.7375197304 3.13968927763
2526 1 14.4773945229 36.1826367412 1.5779887205
2525 1 15.7035049606 37.8015502104 3.47492106827
2531 1 15.4088722355 38.6922232063 1.31860842526
2678 1 18.5655677154 35.0859501179 0.577958036496
2527 1 16.7567015966 36.5318104677 1.31272133261
2530 1 18.1277232484 36.8857602747 3.2045974962
2532 2 19.0459909649 37.5282868201 1.23549608657
2550 1 19.9454249784 35.1909506924 2.5754064618
3205 2 21.9131442849 36.5183424495 0.83261601462
3224 1 23.2166905154 37.227220636 2.91423071177
3197 1 20.7975648427 37.3549444963 2.88054607779
3871 1 27.2154381879 34.99034585 2.52454098617
3206 1 24.1404498229 36.4857490525 0.707652422711
3869 1 25.6177208667 37.2555129197 2.95232798455
3877 1 26.5246663897 36.5610544263 0.660814833446
3875 1 24.8689808665 38.7870728521 1.1646050051
3878 2 28.9557169651 36.299545772 1.0814320157
3896 1 28.0242211853 37.250231212 3.08061791194
4541 1 30.4382852701 37.2339551696 3.02598739587
4549 1 31.289728503 36.4632484356 0.848297533568
4547 1 29.6266315705 38.7674199922 1.27339935617
4550 1 33.7260106006 36.4311348981 0.842774302592
4568 1 32.8610736053 37.2159263317 3.02422949082
4548 1 32.0246733846 38.7527535022 1.26663076463
5219 1 34.374740036 38.732440987 1.25216689933
5233 1 35.2798724222 37.1957432455 3.03577977565
5215 2 36.958333405 35.0707289935 2.53947290185
5213 1 36.1770412959 36.516709988 0.862851406824
5240 1 37.7598884177 37.264484988 3.07218961366
5239 1 38.7021429089 36.7945526144 0.793750736537
5220 1 36.6495850579 38.8288849582 1.42308833468
515 1 1.49040154393 39.8770977135 0.84672053581
514 1 2.43071149446 39.880844226 3.07521560686
517 1 1.6941481949 42.3081875283 2.15166958554
519 1 3.5318854938 40.7984084124 0.631873711047
518 1 4.17063321799 42.2807640147 2.34491415181
1177 1 5.84103837906 40.6567199926 0.606339734529
1185 1 4.87443102553 39.929959105 2.78210139844
1186 1 7.29762535257 39.9045850768 2.78494847594
1189 1 6.5840144197 42.2242374685 2.35176299908
1190 1 8.99352143962 42.1984276419 2.33438602473
1191 1 8.22416639808 40.6404095191 0.574324951938
1849 1 10.6698749508 40.654080268 0.582318050777
1857 1 9.69822418268 39.9008482123 2.77655339343
1861 1 11.4078157966 42.2037862102 2.33514785666
1858 1 12.0325944894 39.9686428577 2.86931396016
1862 1 13.8187113646 42.1752178803 2.37045970855
1863 1 13.2622158927 40.5390948448 0.606463204229
2529 2 14.2694117856 39.9099945672 2.98770855505
2034 2 16.1932196586 42.2725228591 2.40123483007
2549 1 16.7664057383 39.9286328446 2.95531589327
3202 1 18.1135094919 41.3111418058 1.47126082331
2548 1 19.0633041881 39.3366293615 2.50777746789
2533 1 16.1681039379 40.6964916154 0.164287681341
3204 1 22.4676681318 38.8566874721 1.13138135729
3225 1 23.1317801062 41.1824788015 1.74980305393
3222 1 20.6566107363 40.9945963247 1.44062635522
3203 2 21.52773668 39.5444011631 3.03419117979
3876 2 27.1596241649 38.8965582125 1.57576322008
3223 1 23.9629869509 39.421557289 3.35449020343
3874 1 25.6241052116 41.0598697508 1.62528264912
3894 1 26.3786594244 39.5792341424 3.55237335603
3897 1 28.0438848216 41.1056726476 1.74183262223
4546 1 30.4614354259 41.0452999117 1.69787518751
4566 1 31.2220978694 39.511961166 3.4602726527
3895 1 28.8228898794 39.5421642517 3.46685781437
4569 1 32.8750183181 41.0154714848 1.70696666245
4567 1 33.6151369978 39.4922663757 3.49088498853
5218 2 35.2675093151 41.0021195338 1.79721155298
5234 1 38.8608504485 39.1454397155 1.19404305826
505 2 39.4207499342 41.3235493751 1.16687738014
5238 1 37.2679875131 41.6398037398 0.848882325851
5232 1 35.9510459612 39.4374487324 3.63559533866
5257 2 38.199736116 39.5674267748 3.51069821163
18 1 2.60529050324 1.10529849999 4.04425448541
42 1 3.35639887038 2.59739864136 5.8462292972
35 1 1.7826365986 0.424514858977 6.23696235061
16 1 0.886225740689 2.6441196433 5.80350951163
17 1 0.312951974955 1.06253299305 4.10694546474
689 1 4.99440437491 1.06426568492 4.11184704707
36 1 4.15865214812 0.292960195055 6.31539759401
688 1 5.78197730561 2.57442401684 5.86817801043
690 1 7.39556985583 1.02455172818 4.10471163605
707 1 6.5615438928 0.270230785775 6.31673377197
714 1 8.19857231299 2.53804209138 5.87546270933
1360 1 10.6201164391 2.46483736316 5.87912852846
1361 1 9.81935432767 0.993817857041 4.07805871383
708 2 8.92997634797 0.268455051632 6.19566902586
1379 1 11.3993144482 0.196422863021 6.3327837196
2033 1 14.647768179 0.950480496696 4.08979671251
1362 1 12.226317445 0.962596211058 4.11876541899
1386 1 13.0498820159 2.47431113893 5.87707152919
2036 1 15.516946226 2.45582564052 5.85116654955
1380 1 13.8396468853 0.20647454418 6.32640161249
2023 1 16.1701675035 3.26036860938 3.72017076584
2182 1 19.744178916 1.03573568494 4.31877896478
2038 1 17.0142989264 0.89603102753 4.22219794251
2704 1 18.6368036377 0.323386444949 6.23207153286
2051 1 16.2653402419 0.166135467711 6.29837363242
2039 1 17.9570232178 2.8181205236 5.36668476336
2040 1 20.3536011354 3.11373042138 3.73158975049
2692 1 20.2821705793 2.61169089244 6.14346562024
2707 1 22.6254151813 2.46112149356 6.70332241527
2715 1 22.5291135509 2.01762026928 4.45339434563
2708 1 21.3044526431 0.465130756663 6.69998234735
3221 2 23.0538418699 0.0123522213886 3.7629020762
3364 1 25.3999858095 1.3646542115 4.30031548886
3378 1 24.8751553752 2.18451023159 6.52678460435
3379 1 27.2825555982 2.16900387972 6.54994888994
3385 1 26.5124800356 3.71358783248 4.79352264202
2714 1 24.0889765937 3.79926671807 4.80956091126
3386 1 28.9630528218 3.69852745838 4.80610809981
3387 1 27.989927805 1.43059561088 4.35220737499
4036 1 30.4549948083 1.38008938467 4.35497285006
4050 1 29.7398994682 2.16524169933 6.5645533682
4057 1 31.3718545401 3.65356047993 4.81400740851
4051 1 32.1983568473 2.11565547697 6.56451335856
4059 1 32.8744991026 1.27481113345 4.35540184241
4722 1 34.7163670257 2.18596603227 6.60299308053
4058 2 33.6896249766 3.40372847116 4.77311256224
4708 1 35.2290995069 1.2270010833 4.42568657323
4729 1 36.3281005545 3.51671627794 3.7776672512
4725 1 37.5643272827 1.53626179638 4.5375063539
4728 2 36.8025934625 3.51177348662 6.07805886965
4747 2 38.8825379041 0.706082565997 6.28157902746
10 1 1.79889126175 7.22128375579 4.9667780557
21 1 2.63491136712 4.93864248989 5.37718468356
4730 2 0.353315111019 4.84631693489 5.37586582889
4751 1 0.967024861484 6.46086411086 7.13178395005
47 1 3.41260229399 6.4251977497 7.15052666576
29 1 4.23154245919 7.16675691385 4.95869703536
692 1 5.0218533871 4.89355829254 5.41821503172
693 1 7.42937728158 4.79528071393 5.43479384784
700 2 6.71117433598 7.07195019214 5.09727063187
691 1 5.82885945363 6.34049606045 7.21035887866
701 1 9.09579857095 7.06536888666 4.98698057305
719 1 8.25636846639 6.29514699638 7.19984665468
1363 1 10.6710335208 6.28171795846 7.16033901336
1364 1 9.83400329257 4.76309643535 5.43394224932
1372 1 11.544667291 7.05705791843 4.93665734823
1365 1 12.2342700729 4.77097133826 5.40736835118
2035 1 14.5766525486 4.67832209523 5.41712820627
1373 1 14.1916809616 7.03897467577 4.91655424439
1391 1 13.0764332549 6.28051809333 7.11100931018
2062 1 15.4299027515 6.23892200461 7.14602347589
2026 1 16.6996595988 7.44196916555 3.73420319358
2027 1 16.7279707647 5.4248392741 5.19321729931
2063 2 17.7621313554 6.26305004855 7.10480735684
2046 1 16.3636203795 4.11090906389 7.32216146334
2713 1 21.7138357041 4.39845273191 5.15561783522
2045 2 20.1559850854 6.49540805666 5.10443942496