ITEM: TIMESTEP
14000
ITEM: NUMBER OF ATOMS
5376
ITEM: BOX BOUNDS pp pp pp
0.0 39.5600404449
0.0 42.7297273569
0.0 37.0050293879
ITEM: ATOMS id type x y z
2 2 1.25425701848 1.47049403119 2.1709705312
24 1 3.45674252957 1.62641442659 2.05772063485
4 1 2.37086151633 0.32288117219 0.13639870565
674 1 5.798025502 1.69738607947 1.94529505367
676 1 7.40565281011 0.19564405293 0.184728799849
675 1 4.90597278483 0.223354303481 0.171809567656
696 1 8.21830615805 1.69629330959 1.94271607715
1346 1 10.657108062 1.69951297713 1.91431239918
1347 1 9.85542285704 0.178741457635 0.154146322387
695 1 8.94706445479 3.22199422806 3.69942787588
1368 1 13.117814088 1.66921692144 1.92297816676
1348 1 12.2783275142 0.176779051753 0.137320205782
2018 1 15.6560121769 1.55971124135 1.96293086438
2019 1 14.6708572809 0.206859467849 0.24139249917
2022 1 14.7922856312 3.8438893845 1.55360971125
2020 1 17.23964278 3.68158997219 1.66669991147
2534 2 19.3983542733 0.943736076723 3.27245714259
2683 1 18.0986365549 1.21050711387 1.52183050345
2840 1 18.9810472153 2.84076249253 0.0928558082213
2181 1 19.9248857917 3.33606072368 2.49182701748
2695 1 22.4019819907 3.25910688429 2.56265918792
2696 1 21.0405045793 1.5155776279 1.52055962772
2703 1 23.076144574 2.3582264652 0.326758494793
2691 1 22.3254515628 0.026310738702 0.00351108805314
2697 1 23.995322357 0.905517696245 2.02405429568
3361 1 25.5835060554 2.26692999248 0.394853612532
3366 1 24.8460706215 3.10231866734 2.57405543742
3367 1 27.2861696936 3.02935793715 2.57079258755
3368 1 26.3747209935 0.717942040886 2.15614349614
3369 1 28.8151009372 0.734905195772 2.16382673545
3375 1 28.0345914663 2.25360955583 0.383596980213
4033 1 30.4743806526 2.26329412688 0.386413091358
4038 1 29.7186341902 3.02082813934 2.58346602376
4040 1 31.2418349499 0.691922025656 2.140305902
4039 1 32.1331039775 2.94330976335 2.56762595966
4041 1 33.6467459365 0.657293476461 2.12399097209
4047 1 32.8872897488 2.23020680476 0.366210067355
4710 1 34.5511750238 2.93695331924 2.46640144003
4705 1 35.2319482391 2.06758869776 0.353430044398
5 1 39.2377456288 3.01475200395 2.65605287682
4711 1 37.2021353568 2.42570932942 1.6381813638
4712 1 36.0469864399 0.481590076872 2.20701324265
524 1 38.5784111605 0.43062116933 1.97113062432
5241 1 39.3878995127 1.88238090627 0.291412305514
165 1 2.18073667913 3.92625482615 1.57566502795
7 1 3.22456240072 5.46982719417 3.28525203912
11 1 1.8580896238 6.37174415211 1.03707530161
20 1 0.782139851398 5.46902124149 3.03050215089
678 1 4.88245984284 3.98332851535 1.56102309682
679 1 7.38958787728 3.99316300762 1.53668529057
30 1 5.71474656525 5.47858279581 3.30528867034
12 1 4.18869112178 6.24894255159 1.08614140854
683 1 6.6246841224 6.26500176212 1.10666064086
677 1 5.02526484341 7.75879738468 2.85207782202
1350 1 9.8637961659 3.98819296363 1.50562905823
684 1 9.07892489191 6.26440137576 1.08194686153
702 1 8.17813564013 5.49966454756 3.28683496997
1349 1 10.6288535612 5.48540672213 3.28031570779
1355 1 11.532573664 6.2336798932 1.07394715587
1353 1 9.88366850385 7.76514559736 2.84983282903
1351 1 12.3261988559 3.95859046226 1.50749964935
1374 1 13.0736123102 5.42919314008 3.34490126683
1356 1 13.9954056114 6.13934573051 1.24599202899
2021 1 15.5500409832 5.36997933291 3.31850440691
2025 1 14.7694219362 7.63938640141 3.03854159539
1354 1 12.3325357392 7.71541693711 2.87950706285
2167 1 16.5489390268 6.0802749254 1.19157291508
2845 2 19.037088044 5.1064193613 1.15128196475
2183 1 17.9424450516 5.32528753352 3.30568479518
2026 1 17.170881209 7.59010661693 3.12183107428
2028 1 20.0622193868 7.27410426224 1.18459797695
2693 1 20.7925051275 5.60866366034 2.84679683994
2700 1 22.4629539977 6.88305027735 1.24191988599
2701 1 21.3921905207 4.46981574686 0.702739977887
2720 1 23.2517254305 5.42998286373 2.98535291359
2718 1 21.7906554261 7.73850992832 3.52125406666
2702 1 23.9730610446 4.61048969176 0.812310868269
3365 1 25.7513666046 5.35624843348 2.98544108028
3371 1 24.9269707452 6.88982025393 1.23234855172
3372 1 27.4006217557 6.8408359752 1.22750315498
3373 1 26.4719498281 4.56257340624 0.800264479105
3390 1 26.6767816223 7.6104849513 3.44644431451
2719 1 24.2472898768 7.62595389159 3.46154994006
3374 1 28.9334161185 4.53873578955 0.799155029843
3391 1 29.1171275915 7.58527899949 3.44204588101
3392 1 28.2001747527 5.31507895359 3.00387307375
4037 1 30.6225650049 5.29259079002 3.02437109771
4043 1 29.8574921223 6.80802702782 1.23029839301
4045 1 31.3747528464 4.5352021572 0.814779856252
4062 1 31.5439333747 7.53627922861 3.44867504083
4044 1 32.2927980234 6.80950654275 1.23797562908
4046 1 33.783872804 4.49255540278 0.769948284292
4064 2 32.9476524145 5.13259118547 3.0329613898
4715 2 34.7000765714 6.79260125938 1.04219447369
4709 1 35.4411795599 5.56022031666 3.07543489855
4063 1 33.8761005315 7.47403799847 3.43939157486
9 1 39.1919415678 6.57685900715 1.14922900189
4717 1 36.103170835 4.4194560903 0.887088675504
4736 2 37.8337467389 4.90207446148 2.47809204617
4716 1 37.0148052054 6.5940318476 0.708053531637
4734 1 37.7765980071 6.96568155173 3.27388479757
4870 1 38.9652808276 4.28693448192 0.657507179067
13 1 2.62488342584 7.81505755709 2.81331333799
15 1 3.38905818297 8.5652209595 0.596366451024
1 1 0.886600521824 8.67718144754 0.659737211855
172 1 2.65684288942 10.8631950956 0.17367306715
186 1 1.87787866292 10.0969845472 2.34377124969
4868 1 0.136647112357 10.9709903872 0.192903549203
185 1 0.267916818186 8.03013313787 3.02204725434
682 1 7.45483303197 7.77896951989 2.83972076553
681 1 4.29270110958 10.0377953924 2.39975255081
673 1 5.85920674507 8.55321118143 0.651027095998
685 1 6.71083778578 10.0513614351 2.41816550203
844 1 7.55692095415 10.8467675608 0.211507787065
843 1 5.10291941263 10.8465551049 0.187037891159
686 1 9.13995362222 10.0498390361 2.41215313024
687 1 8.3178233467 8.55315433754 0.649003728644
1345 1 10.7707925652 8.51705770998 0.621841185095
1357 1 11.5682302765 9.98682024349 2.41093335356
1515 1 10.006725156 10.828973174 0.204527421296
1358 1 13.9826650762 9.84981611181 2.47981985273
1359 1 13.2162229216 8.42464883825 0.652906716229
1516 1 12.4431170258 10.7187455816 0.202277779274
2187 1 14.8171831027 10.5337978642 0.0139776997785
2029 1 15.6115039358 8.53133872836 0.971300020952
2226 1 15.6360296705 11.5945453711 2.04538155895
2208 2 17.8493242836 8.1515857493 0.769204701814
2699 2 16.4361195694 9.75973879837 3.00984690312
2202 2 19.3693925136 11.3028287973 1.97511553137
2047 1 17.4056571298 10.4787627477 0.661924927594
2064 2 19.4634639209 7.7951168853 3.5158515356
2698 2 21.4130904396 9.19497494911 1.62110203345
2721 1 23.5932393026 9.1461362411 1.69117411257
2864 1 21.8967652317 11.4731426048 2.10704401779
2865 1 24.3546848677 11.4876117072 2.09380879064
3370 1 25.9422148952 9.13132057748 1.67109279049
3536 1 26.7534719483 11.4079917377 2.10568806054
3393 1 28.3606302432 9.11556636652 1.66829900456
3537 1 29.1979899119 11.4103706042 2.10509926538
4042 1 30.8310439583 9.07445133815 1.65938393221
4208 1 31.6305698338 11.3725151332 2.07686560112
4065 1 33.5056217616 9.08209608802 1.63068790499
4209 1 34.0148954684 11.481046757 2.01203596155
4726 1 35.9130889778 8.22525518899 2.47529847513
171 1 39.1489111371 10.5032312662 2.69061342432
4737 1 38.0809116687 8.7438411441 1.3376080332
4880 1 36.2630957204 10.5204031325 1.86536185213
170 1 1.05614652793 12.3610671925 1.93107185749
192 1 3.53081319458 12.3081548751 1.91688209091
319 1 2.85475012853 14.5874878748 1.52375327347
5027 2 0.605299933399 14.7313133537 1.44332930313
842 1 5.97099999081 12.3394736455 1.95979591135
846 1 5.2540251051 14.6321680717 1.48690331601
847 1 7.68731091927 14.638851246 1.52346933851
191 1 4.42002811598 13.7868450333 3.63436415516
864 1 8.41585904332 12.3502119328 1.98319293763
1514 1 10.8627935216 12.3194636085 2.0073206854
1518 1 10.1907586012 14.6367951975 1.6130412
1519 1 12.6364396464 14.4839827219 1.64128265675
1536 1 13.2812792022 12.1449196865 2.04464766888
2186 2 15.1852505992 13.7210764509 1.71236559619
2350 2 18.2011755374 13.9702010988 2.61280555834
2196 1 19.5556178352 15.1797203221 0.865560852456
2206 1 17.1881090889 15.1314756517 0.979416248856
2351 1 18.7423645258 12.8612131389 0.431062295962
2189 1 16.2537583319 15.3931145926 3.35758551212
2191 1 20.4042408943 13.65144335 2.59848957392
2862 1 21.1324580516 12.9192245987 0.370953590878
2863 1 22.7969261369 13.7030078427 2.5597681235
2869 1 21.9446587741 15.1703536146 0.769353245429
2871 1 23.5142891117 12.9641070818 0.340507978099
2870 1 24.3496087703 15.1877256069 0.835516825231
3529 1 25.9225252434 12.943110916 0.365616381134
3534 1 25.2093801569 13.7567308217 2.58964407516
3541 1 26.7648607852 15.1954997008 0.815153477277
3535 2 27.6780057884 13.6000358196 2.51596899583
3542 1 29.2217938753 15.2041405504 0.772714617553
3543 1 28.3651257349 12.915495923 0.320004688893
4201 1 30.7964604308 12.8945015416 0.325359624281
4206 1 30.0950823241 13.7333259292 2.53096224583
4213 1 31.6957097136 15.1312753116 0.60945765782
4207 1 32.5408462985 13.5906013983 2.64561457371
4215 1 33.1478344677 12.7270742063 0.0772799501181
4226 1 34.6072970976 13.9915627396 1.25246321627
4890 1 35.1331025092 12.778836754 3.62767526036
4887 2 38.0586791715 12.1909498711 1.63832049002
4898 1 36.7995721839 14.0073233863 2.24397195611
4873 1 36.0807892202 12.4984915059 0.0975955854296
173 1 39.0117622347 13.619883281 3.28921718087
318 1 38.6861586617 13.7412459509 0.10579703171
178 1 2.74272881534 18.438489494 2.83901458402
198 2 3.75913218645 16.1373483316 3.10851014836
310 1 1.9642784671 16.866813468 1.15667663731
183 1 3.60297226112 19.1191204423 0.691608417325
179 1 1.19523988414 19.1091213159 1.03362029367
190 1 0.280053508347 18.1662164126 3.00020967426
4896 1 1.18967223737 15.9624661686 3.32669841268
180 1 4.42986346476 16.8893826528 1.0093857886
845 1 6.07509237902 16.1393936451 3.24586761558
849 1 5.2281910418 18.4048804404 2.77449544211
850 1 7.68786014337 18.3882733434 2.90370692962
851 1 6.90134769652 16.9380019686 1.01849662447
841 1 6.11314235358 19.1626024476 0.607446846676
852 1 9.31513841766 16.8629977631 1.19084048151
870 1 8.50653924778 16.1073863029 3.32256337718
1517 1 11.0577631839 16.1337875539 3.42553900715
1521 1 10.2593149954 18.4063397941 2.95297928759
855 1 8.68862970397 19.138948429 0.898094099306
1513 1 11.2438026065 19.3125946158 0.910426658705
1523 1 11.6680465941 16.9396947097 1.10776814901
2190 2 13.7972313058 16.3540241982 0.754165936024
1522 1 12.9039970107 19.1089282405 2.77737618303
1524 1 13.7390065163 18.5139739144 0.664860853851
2193 1 15.7320503093 17.1663370815 1.52115170604
2194 1 18.6845323765 16.0903993054 2.92708500418
2199 1 17.9742121428 17.4443617143 0.961530625306
2867 1 19.4480080044 18.230866877 3.3109128812
2215 1 16.9600949797 17.9880921884 3.37939355107
2195 1 16.3712111292 19.2795019187 0.299928150417
3007 1 20.3018097133 17.4624779537 1.15402410694
2888 1 23.5509327113 15.9530485892 3.00469423744
2868 1 22.6844194762 17.4572233422 1.26574441571
2886 1 21.8801860494 18.2456840359 3.42352476008
2861 1 21.1633085483 15.9945401356 2.90390940381
2887 1 24.2859593804 18.249004053 3.43214990116
3533 2 25.950726878 16.1710288836 2.92364888542
3539 1 25.0856535301 17.5127012433 1.22190696906
3540 1 27.5110058138 17.4909428258 1.2459444506
3558 1 26.7148064207 18.3090167882 3.43515284531
3559 1 29.1317776876 18.2822408451 3.43733303868
3560 1 28.421927671 15.9781836846 2.96695693631
4205 1 30.990642902 16.0234904696 2.97277755423
4211 1 29.9340929784 17.4877628143 1.27270947121
4230 1 31.528566408 18.4386076952 3.48393179169
4212 1 32.3340046237 17.5668572749 1.10558442471
4232 2 33.4323450093 15.785371534 1.90189726384
4883 1 34.9645610886 17.8909190303 1.52890405771
4231 1 33.5934636136 17.3464133154 3.4641475727
4904 1 35.4285897888 15.6291571627 3.34983030034
4885 1 39.0401619119 16.5954297606 1.06233129448
321 2 36.9463282225 16.563288485 1.87901192318
4886 1 38.2661958601 15.8383420941 3.52414764709
4884 1 37.8531508075 18.7606435943 1.31542223
4902 1 36.1821835667 17.9949395775 3.68866311637
181 1 1.86357345956 20.8205663154 2.58705481446
360 1 3.87262796033 22.8919048083 1.84383081433
340 1 2.94230992526 21.3335451608 0.417064565918
4905 1 0.598181556648 21.8801284825 0.366561513598
182 1 4.44507413134 20.6476971784 2.42057752283
853 1 6.89417551768 20.6727969674 2.38852524381
1010 1 6.16442895658 22.962480075 1.91971200401
1012 1 7.66077469679 21.3387487003 0.156592557078
1011 1 5.2642414489 21.4062888746 0.184057658839
854 1 9.34045865133 20.7249218163 2.58390096252
1032 1 8.5284903021 22.977658985 1.90954797491
1683 1 9.97461181263 21.5610453768 0.368898440878
1682 1 10.9080098685 23.1971783245 2.02662875567
1525 1 11.7527397565 21.058160406 2.64760580048
1526 2 15.3477085407 19.5070437591 2.39188484524
1527 1 13.9202997685 20.7307810617 1.07594429364
1684 2 12.126737681 21.7732238156 0.398239514888
1704 1 13.3691947753 23.1817394508 2.1120142673
2369 1 14.592520036 21.4499271493 3.4787518265
3026 1 18.5579780636 19.7137595009 1.65515439839
2197 1 16.7392621588 21.6407110254 1.85086604002
2376 1 19.2743156531 21.9495521812 2.12148789115
2866 1 20.9970737446 19.7313576867 1.72939036188
2889 1 23.4188454329 19.752326209 1.72530306923
3032 1 21.7511436886 22.0064095941 2.15030036116
3033 1 24.1925002636 22.0346431629 2.09981862176
3538 1 25.8432810125 19.8025444452 1.68043995552
3704 1 26.6251301477 22.0821966292 2.12097349333
4210 1 30.6967725265 19.8084755796 1.64778260978
3561 1 28.2766556893 19.7884877566 1.68767274968
3705 1 29.062694182 22.09979722 2.10667231944
4376 1 31.5071100497 22.1119136965 2.11350851397
4233 1 33.1095676262 19.6937965092 1.65483757598
4377 1 33.8910611771 22.0052908234 2.01688506813
175 2 37.8729090273 19.4943800363 3.48417329495
4882 1 35.9118837667 20.2082085514 2.07387759227
177 1 38.9142791577 20.8742366208 2.18763032635
4901 1 36.5697470652 22.5207106087 1.82312576112
5049 2 38.1531489261 22.734392149 3.41566077146
353 1 1.74891378494 23.4426137687 2.56895116037
343 2 3.07527740174 25.2731789973 1.33748058033
366 1 3.46866115667 26.7879288059 3.17338833488
5066 1 0.798238192812 25.73620763 2.46909772959
338 1 2.31710031607 23.57083548 0.0141630879153
5043 2 0.24188394417 24.0198338111 0.905140410584
1013 1 5.9002347757 26.8337701845 3.27126483546
1014 1 5.31253132403 25.2682279667 1.47089793064
1015 1 7.66496299005 25.2693550635 1.49055429695
359 1 4.39465777565 24.4499429883 3.56953449791
1030 1 6.78156711798 24.5634244403 3.6954771115
1038 1 8.34060729196 26.8701629794 3.23894308152
1685 1 10.7410010473 26.9263085825 3.25522553737
1686 1 10.0752887444 25.344965437 1.44815173985
1031 1 9.21382897036 24.6146123462 3.69194893299
2354 2 15.778880373 23.4258438671 2.88429910388
1687 1 12.5154571882 25.4403172922 1.56464637044
1710 2 13.0749419905 26.9942404104 3.30179841018
2358 1 15.0004317111 25.348201231 1.84949122786
2357 1 15.5950252078 27.0776230127 3.62120095173
1846 2 14.0133764879 24.2132682876 0.0252825189053
3035 1 16.9700281987 26.4824798789 0.975565622124
2505 1 19.3456562251 25.7881194608 0.878285126193
3046 1 18.315924074 26.6913255918 2.97902954989
2359 1 18.6944286646 23.4077803149 0.367535023335
2374 1 17.7065893644 24.4483372066 2.19079981037
2517 1 16.2508184954 23.7137784084 0.450612742531
3030 1 20.0925157973 24.2384460656 2.5433668255
3039 1 23.3980062218 23.530057709 0.330304185612
2364 1 21.0142444852 23.5172056999 0.367447348524
3031 1 22.5147569989 24.303292007 2.52957888558
3056 1 23.2806269682 26.5876128911 3.00024788914
3029 1 20.8273766442 26.5547570906 2.98746397566
3037 1 21.7277201424 25.8419772538 0.804922224702
3038 1 24.1375294574 25.8347597184 0.81766992724
3697 1 25.7818133436 23.5916844701 0.383556722687
3701 1 25.7438093815 26.6183648352 3.00291747294
3702 1 24.9620747581 24.3333577067 2.5723772187
3703 1 27.4136452854 24.3701690821 2.56104341668
3709 1 26.5630786858 25.8803587968 0.791888589704
4369 1 30.6408759989 23.5957885731 0.356499092471
3710 1 29.0122855932 25.8892855654 0.805751424652
3711 1 28.2095134228 23.6073403539 0.342205890863
3728 1 28.2024569711 26.6527088626 3.0146314278
4373 1 30.6698814349 26.6738011104 3.02573225462
4374 1 29.8751014116 24.3849434204 2.5704410431
4381 1 31.4986893378 25.8763830952 0.812541990256
4383 1 33.0652378255 23.6226639333 0.363279208235
4375 1 32.3373949005 24.395034595 2.58120354221
4382 1 34.1631777335 25.8673686025 0.734305292616
4400 1 33.1241168658 26.6534193759 3.01240827861
5045 1 34.6951434507 24.263827624 2.65190333122
5046 1 35.3945852178 23.5689884412 0.126943730909
5087 1 35.4824550424 26.6727314444 3.08608610244
5055 2 36.6176484813 25.0096952525 1.59531059753
5041 1 38.7836593941 26.0790132337 0.590283418754
356 1 37.9849104727 26.3989506405 2.99686840251
347 1 1.89441576 27.392240304 1.08492944694
337 1 0.994155259529 29.7423297313 0.757906033718
346 1 2.74387050115 29.0546630043 2.69372853571
351 1 3.45288114695 29.8716847186 0.538235074816
5062 2 0.691870516675 29.6616124215 3.30949424019
348 1 4.33670550265 27.5693924414 1.02373174386
1009 1 5.89173481533 29.8871177924 0.492547080642
1017 1 5.10938988201 29.1450589082 2.71207793593
1018 1 7.52513520608 29.1508740816 2.74027199061
1019 1 6.74163840821 27.5527145241 1.04237538414
1020 1 9.17789573673 27.6105416314 1.02101981335
1023 1 8.31833400419 29.8940342882 0.522728782216
1681 1 10.7595022398 29.9186532315 0.556412758125
1689 1 9.96077029734 29.1850883166 2.76747000238
1691 1 11.6344092277 27.6717409385 1.04933739522
1690 1 12.4376140823 29.218166345 2.80191061416
1692 1 14.3227892633 27.6267638116 1.45671688732
1695 1 13.1994737578 30.0012027761 0.65346454435
2361 1 14.8709315243 29.4908818256 2.97729209138
2353 1 15.7228964427 30.1099969821 0.710617553929
2366 2 16.555992094 28.3823247259 2.03228915277
2362 2 19.3717166583 28.7578414844 3.23041626791
3198 2 18.2617085439 31.0483450612 1.25771130122
2381 1 20.1510021183 28.1113522584 1.23593933587
3057 1 23.2610563824 30.3175037773 1.69922046708
3034 1 20.7315909193 30.5152619938 1.85223229376
3054 1 21.6623007646 28.8519460488 3.47327997036
3036 1 22.4901317635 28.1334151225 1.26989762122
3055 1 24.0962831983 28.8586415978 3.45292533686
3706 1 25.6911257493 30.4111785829 1.68887364535
3707 1 24.9134871663 28.1260952515 1.23781725709
3708 1 27.3415681235 28.1553701774 1.25072645431
3726 1 26.5345219984 28.9143518287 3.45667544825
3729 1 28.1285995431 30.4397768581 1.7147792715
4378 1 30.5918847213 30.4455257604 1.72335806739
4379 1 29.7764559799 28.1662742984 1.2706030232
3727 1 28.9928116298 28.9441588539 3.47346494497
4398 1 31.4519057989 28.9689641232 3.4758415976
4380 1 32.1949299343 28.1509811917 1.26190236449
4401 1 33.0635067585 30.4529500515 1.7096191884
5051 1 34.5366422389 28.23263491 1.2076405541
4399 2 33.917739147 28.997393408 3.3766449
5050 1 35.5761766388 30.4163032594 1.70407452382
5070 1 36.6804637454 27.4737663983 1.1299767608
5064 1 39.1358542705 28.0935503182 1.81367299125
5206 2 37.8786801219 29.7755778983 0.898902056816
5069 1 36.6631789355 28.8377183477 3.17608301863
349 1 1.70524833292 31.5467958634 2.20147008229
528 1 3.19506227336 33.7137652343 1.96075678633
5223 1 1.13067791466 34.1078079883 0.513823769501
520 1 0.441744192461 33.4015422593 2.71583114593
508 1 2.66198740284 32.1720752113 0.123335535339
350 1 4.17123343202 31.442355243 2.26968908622
1021 1 6.62629061891 31.4206427299 2.29412483153
1178 1 5.7290025089 33.68715533 1.87158949081
1179 1 5.00196637134 32.1711035722 0.0350269787839
1180 1 7.42772772242 32.1555588081 0.0874595770523
1022 1 9.0834643815 31.4376498035 2.30466575991
1200 1 8.2031765348 33.7063967544 1.87006251747
1693 1 11.5506313778 31.4558252229 2.31799538396
1850 1 10.6664948731 33.7285320515 1.88192672539
1851 1 9.88256231872 32.2004124386 0.0986540629861
1694 1 14.0361642029 31.5822027811 2.2658426753
1872 1 13.1242791941 33.804596417 1.87498177468
2522 1 15.5567828751 33.8669193831 1.77063287402
1852 1 12.372948857 32.2206587336 0.118095187807
2365 1 16.4878444315 31.862610857 2.33701553814
2543 1 19.2623889798 32.5464532729 2.89949254183
2688 1 18.0550992749 34.0123969811 1.48419745433
3200 2 21.2816127355 32.9625949424 1.47796833092
3207 1 23.0643628163 34.2275914077 0.416249011406
3199 1 22.0852760152 34.9158322758 2.61534986489
3201 1 23.8575684522 32.6771408681 2.15422078407
3865 1 25.5448958446 34.2279410389 0.418484834784
3872 1 26.3831092155 32.7126224381 2.15628592239
3870 1 24.6740191887 34.9601540639 2.58975969513
3873 1 28.866175777 32.7379736546 2.15963297126
3879 1 28.0041714115 34.2362468062 0.408076287149
4537 1 30.4509302673 34.2198540173 0.411044104871
4544 1 31.3323445019 32.7445176411 2.16088912654
4545 1 33.7473634077 32.7020153768 2.1130242657
4551 1 32.8860809007 34.2065142271 0.389593888229
5209 1 35.330205504 34.2165808973 0.31911417998
345 1 39.4868434448 31.7913198538 0.131415143524
5216 2 36.1348538626 32.7835813418 1.94811315408
5362 1 38.1941640131 33.5869425807 1.22328135163
5052 1 38.3562074657 31.2784190135 2.46080373857
511 1 2.58734058084 36.0064236965 1.36236111056
534 1 3.47601994729 37.4072609657 3.16669774083
510 1 1.8377906401 38.3772425091 1.04290424551
506 1 0.149457352075 36.0192796608 2.01304385782
5222 2 1.91959585693 35.3627759661 3.69594466231
509 1 1.17831560142 37.8175190925 3.34862394715
516 1 4.20843321518 38.3490413519 0.989538056732
1181 1 5.80709944198 37.4946353903 3.22587856469
1182 1 4.9872855094 36.006635341 1.47496176186
1183 1 7.41178772584 36.0111471983 1.42691351394
1187 1 6.62614081259 38.3421455438 1.03794457104
1198 1 6.61985410561 35.2267858082 3.5912865607
1188 1 9.04958540724 38.3406937622 1.03421681127
1206 1 8.19228199812 37.5176456982 3.1983543084
1853 1 10.6011693066 37.561253597 3.21594905068
1854 1 9.84132647099 36.0394496407 1.45256048377
1859 1 11.4645963083 38.340470175 1.00323202569
1199 1 9.0303670757 35.2445340581 3.63090885963
1870 1 11.4469286366 35.2733002731 3.64602353829
1855 1 12.2520605812 36.0593591286 1.4389170685
1860 1 13.8820167428 38.3634525769 1.01167457365
1878 1 13.0058771746 37.5942137493 3.21770284473
2526 1 14.6314494241 36.1705031147 1.5059709106
2525 1 15.3783920133 37.739915482 3.51962190961
1871 1 13.8894194993 35.3585827607 3.64819698709
2527 2 16.7496508372 35.7689936135 1.05289841996
2531 1 16.2485668079 38.268607044 1.45235680458
2530 2 17.9473384097 37.5931262127 3.4036695211
2542 1 16.3985800063 35.5454608464 3.55693414876
2550 2 19.7575113085 35.8230415285 1.67060418046
3205 1 21.6780967572 36.5432547395 0.838271584635
3224 1 23.1675759589 37.0314766484 3.01403459666
3197 1 20.6812416391 37.4645251405 3.24795198685
3343 1 19.9181661546 38.1137046026 0.468014761687
3204 1 22.2648514525 38.7295667073 1.65476582848
3871 1 27.1792116423 35.0193643348 2.59122516446
3206 1 23.9672546048 36.5047573032 0.802360169436
3869 1 25.5704945975 37.3105784403 3.02855350304
3877 1 26.3736308534 36.533198877 0.830128136996
3876 1 27.1654486934 38.8333001003 1.2610398139
3875 1 24.7143618748 38.8157092432 1.1894446442
4542 1 29.6537428579 35.0390654556 2.58312552561
3878 1 28.7823805345 36.5492538299 0.808217187395
3896 1 28.0084521663 37.3228689771 3.03006949322
4541 1 30.4566111467 37.3195467697 3.01667180661
4549 1 31.1861175434 36.536734893 0.788723021358
4547 1 29.5858984403 38.8226861388 1.23324467022
5214 1 34.5950066702 34.9987230201 2.56739252255
4543 1 32.1331753324 35.0400655441 2.57666455307
4550 1 33.5682390226 36.5020054706 0.793030410911
4568 1 32.9099876503 37.3180540745 3.00764412488
5233 1 35.3751758742 37.3497823062 2.90048702365
5219 1 34.3950855741 38.771554574 1.16518144666
4548 1 31.9805267297 38.8014160117 1.21960162823
5217 2 38.3307966738 34.9932029495 3.54939227161
5215 1 36.9245222177 35.4009251046 1.92643579982
5213 2 35.7913426753 36.6637463419 0.538572313469
5240 1 38.0036338806 37.5015827159 3.16336001633
5234 2 39.1299802015 38.2813803889 1.27708450831
5220 1 36.8380751491 38.706201488 1.26400534765
514 2 2.77173385558 39.6927364326 2.75573869495
517 1 1.7647402766 41.9407245142 2.33963490215
519 1 3.39801508037 40.728123259 0.517134878224
515 2 1.17621926902 40.7794793269 37.007999762
518 1 4.1877471926 42.0546072149 2.34353271631
1177 1 5.82629691251 40.6597625842 0.589931712022
1185 1 5.02556225822 39.7941942049 2.79267546632
1186 1 7.40414912592 39.8235243788 2.81326626032
1189 1 6.58789080321 42.121008795 2.37695007138
1190 1 9.00288317012 42.1283852885 2.37204372008
1191 1 8.24301281017 40.6374563372 0.610641192546
1849 1 10.6415973126 40.6111922018 0.586790667075
1857 1 9.79234499152 39.8417828108 2.80786010933
1861 1 11.4141852541 42.138420878 2.30903499938
1858 1 12.1864949892 39.8388667722 2.77319067727
1862 1 13.8056266454 42.0968572502 2.35663030306
1863 1 13.0159884867 40.6068341588 0.547659938902
2529 1 14.6334532634 39.8367760864 2.78969673769
2533 2 15.2466309288 40.6022942403 0.620043906543
2034 1 16.2286607878 42.0004870365 2.47068486559
2548 1 19.6016666593 39.4663417273 2.54535090471
2549 1 17.1297449563 39.8448321016 3.23514812131
3202 2 18.2291202669 41.3393469475 1.69868763384
2170 1 17.0071220826 42.3119413631 0.0155727356598
3225 1 23.1567319898 41.1032917771 1.66199264957
3222 1 20.4935487762 41.8369757009 1.84451546764
3203 1 21.6085970884 40.3060534585 3.45090129426
3221 2 22.3719232051 42.6439653534 3.08502599055
3357 1 21.3613185844 40.2069300571 0.23424363435
3223 1 24.0372416741 39.3820855942 3.30283701174
3874 1 25.5396879495 41.1363487977 1.74528979664
3894 1 26.4112306372 39.6328080997 3.47025212865
3897 1 27.9577381502 41.1600846743 1.75525334566
4546 1 30.3706584595 41.1315156888 1.69254590604
4566 1 31.2501154081 39.6147921257 3.43952826852
3895 1 28.8248950063 39.6239753627 3.45664358687
4569 1 32.736187586 41.1191913537 1.66580658986
4567 1 33.6566129418 39.6245500784 3.38597541144
5218 2 34.9960052764 41.0006719181 1.63566071862
505 2 39.2981005208 41.1963365495 2.84297343189
5238 1 37.3424316419 41.1400192298 1.55570607868
5232 1 36.0957194645 39.643040292 3.39123648287
22 1 1.62481263748 3.09225616635 4.00487114076
18 1 2.490246272 0.777279922684 4.18362208603
42 1 3.02053177742 2.43419345092 5.92791806304
16 1 0.240125768144 2.04672290555 6.64742568738
17 1 0.164428059473 0.659604671662 4.15545161233
35 1 1.55267146717 0.100158546758 6.3777582983
694 1 6.50164860551 3.21184745231 3.72428438296
23 1 4.0438334968 3.22956254902 3.76443320239
689 1 4.86329500294 0.904541601861 4.12358954897
688 1 5.57494584263 2.42885071761 5.8915379448
690 1 7.30271479832 0.907149366417 4.1332960714
707 1 6.42844581967 0.1290585415 6.31768589016
36 1 3.98646643045 0.115987788793 6.30395693865
1366 1 11.3869412713 3.20428827395 3.70144037875
714 1 8.03801224322 2.44459101032 5.88386460442
1360 1 10.4662135108 2.43233155885 5.88669787874
1361 1 9.71675682064 0.953526306657 4.1029840309
708 1 8.84334897952 0.142733167077 6.29354778575
1379 1 11.2331247285 0.138204530763 6.30722578874
1367 1 13.8133420614 3.16733114182 3.726276966
2033 1 14.5703046256 0.911096767431 4.10482356409
1362 1 12.1428031488 0.922993038413 4.10290638515
1386 1 12.8692512517 2.41560355489 5.91503988152
2036 1 15.2288686903 2.41476783476 5.91599893565
1380 1 13.5756159802 0.122072089756 6.27262527639
2023 1 16.2110652337 3.10588618406 3.81599938143
2694 1 18.4876620449 2.76659699967 4.16854009117
2058 1 17.01957356 0.811935085359 4.1930077803
2038 1 17.5571430657 2.16737363549 6.31210578529
2051 1 15.9006594717 0.190078843956 6.25108356207
2704 1 18.9453892182 0.415776098964 5.56282267814
2692 1 19.8475603092 2.92432855488 6.27400271003
2182 1 21.0808149703 1.58803088448 4.52681880412
2707 1 22.5685390577 2.42249806941 6.45866492141
2715 1 23.3853883855 1.751809212 4.27432986622
2709 2 24.1852318045 0.19340270458 5.93832097974
3364 1 25.7149733382 1.51910506772 4.31676126038
3378 1 25.0231813916 2.43061437018 6.46045530924
3379 1 27.4041473543 2.31456953825 6.54559739246
3385 1 26.5878650802 3.82824441984 4.76242360842
3380 1 26.4657243127 0.00339565402743 6.12050247488
3386 1 29.0325067144 3.81474226522 4.78454269397
3387 1 28.1024252475 1.51459030096 4.35573064385
4036 1 30.5162560656 1.49817782263 4.34962639918
4050 1 29.7983740478 2.28109187475 6.55690408313
4057 1 31.4924889957 3.7856772971 4.79168708967
4051 1 32.1997396225 2.23049608546 6.55031101237
4059 1 32.9087536056 1.44224612166 4.35176289941
4722 1 34.5706269766 2.18757251621 6.61078694365
4058 1 33.997893705 3.63844165098 4.72845804113
4708 1 35.2387875543 1.4232685214 4.3581701566
4729 1 36.4545154187 3.47080161994 3.72300239362
6 2 38.8335023369 2.96926201804 4.86889351667
4725 1 37.5037902159 1.3864290007 4.05959867748
4728 1 36.8494293232 2.78694550644 6.06882333793
4724 1 36.2021377537 0.0481895008576 6.0366194922
10 1 1.81605820456 7.24388338756 4.99155484297
21 1 2.24499502271 4.87367544195 5.51023425451
47 1 3.24019415246 6.24301878464 7.24391178127
29 1 4.15771191193 6.9783002266 5.05029831885
692 1 4.7721177801 4.69518978677 5.51067211019
693 1 7.26489797601 4.72265371236 5.47386311737
700 2 6.57574826753 7.01177273305 5.04268996444
691 1 5.66133859215 6.23919676702 7.24461238181
701 1 8.99254306141 7.00426373167 5.04306867552
719 1 8.08930858654 6.24646743773 7.22565985956
1363 1 10.5118948192 6.23122808904 7.25135839098
1364 1 9.72093548252 4.72319803356 5.47092879529
1372 1 11.4102859434 6.97898811917 5.0680161821
1365 1 12.1714333694 4.70096124503 5.50405521636
2035 1 14.6606869989 4.66799588033 5.52643595479
1373 1 13.8355111565 6.90557531345 5.1244629005
1391 1 12.9202901178 6.21547242351 7.29165554795
2062 1 15.3163952267 6.171183494 7.34335035201
2039 1 17.2269692921 4.48838191794 5.56149426701
2027 1 16.2794425849 6.71468894892 5.19858975952
2045 1 18.6333105253 6.83230113337 5.29569587199
2040 2 19.609457348 4.78469450119 4.62751000256
2060 2 19.5584607551 7.08867662597 7.30997360591
2063 1 17.6222361221 6.04681721893 7.37215288422
2713 1 21.7066566702 3.93826561492 4.75810142687
2712 2 22.7478048282 6.18403932437 5.14967809314
2736 1 23.4824565354 4.63042743357 6.99114313166