ITEM: TIMESTEP
10000
ITEM: NUMBER OF ATOMS
5376
ITEM: BOX BOUNDS pp pp pp
0.0 39.5600404449
0.0 42.7297273569
0.0 37.0050293879
ITEM: ATOMS id type x y z
2 1 0.896662450861 1.82619777369 1.96168059731
24 1 3.40352452802 1.82255943818 1.97717552284
4 1 2.56513753132 0.540668871938 0.303677571522
674 1 5.78298205394 1.75842998248 1.91266842827
676 1 7.37411743676 0.191241100507 0.129990291016
675 1 4.95967575674 0.240813435125 0.130428271614
694 1 6.55784541222 3.25472551504 3.69303898812
696 1 8.17476031366 1.70765688415 1.91714001603
1346 1 10.5698245673 1.67324102475 1.90580781044
1347 1 9.79569428166 0.161864823265 0.109507424809
1366 1 11.4030841716 3.18669361009 3.59883921594
695 1 8.9819797119 3.14936660573 3.6961363008
1368 1 12.9738270307 1.70018868132 1.79743124128
1348 1 12.2401398857 0.13332541165 0.0643628107131
2018 1 15.2786458198 1.52501788133 1.7679077549
1367 1 13.8175992103 3.19847623409 3.55300416513
2022 1 14.7466500053 3.88129760656 1.30243963007
2020 2 17.0721373243 2.68565737901 1.54027567656
2694 1 18.4522132129 1.74343334909 3.06555919363
2170 1 17.1536997822 0.245354321496 0.279610211521
2023 1 16.1583737507 3.37306029882 3.64643714287
2181 1 20.4131388257 3.10970498948 2.80854603317
2695 1 22.6229105958 3.17390948249 2.43056255646
2696 1 21.520641182 0.690836881205 1.89021174044
2703 1 23.193320635 2.24264895326 0.353347083781
2689 1 20.8698217161 2.51149955268 0.478349851482
2697 1 23.8622277648 0.627855991281 2.16740533761
3361 1 25.6013822705 2.21395783836 0.357596738308
3366 1 24.8931091785 2.95101308081 2.55854081521
3367 1 27.2611200698 2.9634109823 2.58542717154
3368 1 26.2854613314 0.678876233537 2.19463642332
3369 1 28.733323811 0.667249185702 2.17130823276
3375 1 28.015562643 2.21359157139 0.379221014223
4033 1 30.434488915 2.17584158428 0.362923733306
4038 1 29.6608501825 2.90392510218 2.56669779481
4040 1 31.1816912682 0.571633907441 2.10495397301
4039 1 32.0902260315 2.87742815712 2.52396437831
4041 1 33.6445135199 0.514495855639 2.04644667731
4047 1 32.8201791366 2.01968167483 0.288781560276
4710 1 34.5113790574 2.80319263458 2.4431202136
4705 1 35.1818366093 2.11276861059 0.25951479005
4711 1 37.5334307135 2.65399709854 1.69293619475
4712 1 36.0414746409 0.746853120932 2.23960763249
524 1 38.519869214 0.47589780881 2.27100275471
4729 1 36.3103487964 3.39918100841 3.68289062945
165 1 2.67744819367 4.0441337437 1.76074818472
7 1 3.2938370273 5.61543587389 3.34809072593
11 1 1.87505945492 6.29151102647 1.11228220156
20 1 0.737926846464 5.40920623647 3.41494824673
5 1 0.343209740303 4.10591017183 1.39431962814
678 1 5.03238280797 4.10237093122 1.57180647368
30 1 5.79423788689 5.58803666933 3.32725891056
679 1 7.39749948602 4.03367494617 1.51226363932
12 1 4.14943841255 6.33190427786 1.11524792927
683 2 6.48307291364 6.33878110222 0.953241997343
682 1 7.31751753226 7.7405113279 2.83071030646
1350 1 9.81542468973 3.98555175387 1.48221362116
684 1 8.96063292941 6.27919597916 1.06232938926
702 2 8.32046654228 5.39268934946 3.28383163543
1349 1 10.6095309061 5.50104221606 3.2235825395
1355 1 11.3977278158 6.27747968322 1.02011689548
1351 1 12.2795930594 4.00017945882 1.41581888347
1374 1 13.0014559496 5.51868733802 3.20432609819
1356 1 13.8148400026 6.24665498022 0.970837244405
2021 1 15.2713790982 5.66884492285 3.01361386938
2167 2 16.0167558277 5.89769887121 0.60932285688
2845 2 19.4722413129 4.77176916753 0.940682330443
2183 2 17.4140360736 5.26232186209 3.36344071982
2028 1 20.1535037625 7.13791075279 1.50228437425
2693 1 21.040518341 5.54902534857 3.03670007846
2700 1 22.5577939489 6.99325992923 1.27779539176
2701 1 21.7103849807 4.76183205708 0.828547544048
2720 1 23.4143633296 5.39551542443 2.91814528468
2702 1 24.1203734417 4.57514401909 0.773644986014
3365 1 25.8138072783 5.29635860615 2.96568898421
3371 1 24.9860362029 6.88284057361 1.24116311249
3372 1 27.4300599454 6.83333957052 1.25211088744
3373 1 26.5232773935 4.52158846839 0.786505772742
3390 1 26.6469854339 7.60468543301 3.44863953772
2719 1 24.2343761734 7.6672791387 3.43070128908
3374 1 28.92640364 4.50425765487 0.813574335268
3391 1 29.0671458175 7.60068236395 3.45233576105
3392 1 28.1799629662 5.26008580345 3.0091387202
4037 1 30.6108452904 5.0817366308 2.98429304514
4043 1 29.8612295355 6.78023002191 1.25660019103
4045 1 31.3075075879 4.44048850617 0.764145048194
4062 2 31.2892064622 7.13557792282 3.35865020251
4044 1 32.3119296775 6.82226521142 1.24319696456
4046 1 33.6290991238 4.25466992072 0.681286397248
4064 1 33.1159351972 5.12475759984 3.02923476656
4715 2 34.5282729757 6.25359657043 1.18087831659
4709 1 35.6652992999 5.64146400626 3.06771230649
9 1 39.2668297341 6.68529537932 1.53613036318
4717 1 35.987235104 4.29923045871 0.930160908044
4736 2 37.8781913178 4.924682882 2.43156531494
4716 1 36.8738782108 6.67395481532 0.815875985298
4734 1 37.751785901 7.02774684 3.30467866433
4870 1 38.1520089928 4.84930602117 0.00405978694563
13 1 2.27441975294 7.84560138437 2.87768657878
15 1 3.21789827948 8.60401939758 0.698550722321
1 1 0.812923811384 8.9254981572 0.782752739202
172 1 2.4621968229 10.9530925456 0.215099069161
186 1 1.74767969316 10.2877942595 2.47052520251
4868 1 0.00029339982217 11.2890292767 0.22445681697
677 1 4.84870489214 7.82514248307 2.87998192203
681 1 4.14313031598 10.0984443745 2.42546370298
673 1 5.69731264426 8.60505881336 0.667324658917
685 1 6.57781005599 10.0667858415 2.40806482396
844 1 7.3940975743 10.884270716 0.217580169508
843 1 4.94569591412 10.8974218336 0.23026564365
1353 1 9.74439871271 7.78490101228 2.81969548715
686 1 8.98896888144 10.0761370967 2.39594527207
687 1 8.15913299227 8.55831074002 0.65563127656
1345 1 10.625076873 8.5742413052 0.629008334728
1357 1 11.4114046601 10.0956586206 2.40712457694
1515 1 9.81276476945 10.8807426799 0.195808929864
1354 1 12.1751632675 7.81032509076 2.8203597058
2025 1 14.4981000747 7.96862909116 2.71509329613
1358 1 13.8305731114 10.1473299426 2.48372269451
1359 1 13.1079343475 8.55744244466 0.648954509523
1516 1 12.2060558204 10.8530405605 0.197035881068
2029 1 15.6492490221 8.4771503099 0.332334431511
2187 1 14.538789615 10.6927715119 0.30075406985
2208 2 18.040086512 7.85245590782 1.3815994994
2699 1 16.510320524 9.49206832365 2.22055390815
2202 2 18.5319960415 10.7858536497 1.75261331376
2047 1 16.8031949845 11.0960974328 0.412021872683
2718 1 21.8193467246 7.79769196283 3.4868269196
2698 2 21.2517607306 9.29918106804 1.60065645312
2721 1 23.4987434828 9.24054161453 1.66862091384
2864 1 22.0402836617 11.5022409714 1.97514867848
2716 1 20.0565035563 10.1245902605 3.69693794221
2865 1 24.3619890576 11.4923541548 2.14694727655
3370 1 25.8986674906 9.17244699973 1.69153936154
3536 1 26.7144535252 11.4580380086 2.15144125867
3393 1 28.3417820338 9.13370695757 1.70125769397
3537 1 29.1041054236 11.4333608605 2.13083437972
4042 1 30.8445138426 9.08709372193 1.76046429138
4208 1 31.5127846699 11.4624547003 2.10439749565
4065 1 33.4539947752 9.41880324 1.67097575069
4726 1 35.5543403794 8.1358463535 2.85017663715
185 2 39.3905771118 8.70457506783 2.93074409511
4732 2 35.7241341656 8.97394089325 0.684035632364
171 1 38.9007361913 10.8528705236 2.54628256338
4737 1 37.8531293644 8.77948794294 1.33374430249
4880 1 36.1223443351 10.5884008301 2.178263111
170 1 1.1746019714 12.5212707162 1.97504600296
192 1 3.50553582574 12.3829299269 1.94567969898
319 1 2.92967671276 14.6742905906 1.5300229331
5027 1 0.704358458022 15.2713165875 1.9122142295
184 1 1.97867238677 14.0086416088 3.63765874345
842 1 5.88136313791 12.389907223 1.96278734852
846 1 5.21038622498 14.7153161658 1.47008900123
847 1 7.56106266011 14.7317596086 1.50812959463
191 2 4.3787321882 13.9130178007 3.60676369365
862 1 6.70110765102 13.960017313 3.698080772
864 1 8.25852716994 12.4082876691 1.97237434877
1514 1 10.6437940031 12.4007383943 1.9711271933
1518 1 9.95666743526 14.7130203874 1.56718505187
2226 1 15.3663277406 11.9531079812 2.19944946746
1519 1 12.3495121659 14.6020731741 1.54418321994
1536 1 13.0062006978 12.3512354227 2.01951292687
2186 2 14.7220141964 14.1265033268 1.60359305908
2189 1 15.846918619 15.3609417009 3.1931696419
2350 2 17.9811273914 14.1209770459 2.83700139268
2196 1 19.2982817952 15.2844878843 0.786167148616
2206 1 16.8879329625 15.3634079693 0.993074574084
2351 1 18.4849338765 12.9663583851 0.651388451681
2191 1 20.2251583182 13.8372226947 2.56298048774
2862 1 21.04265116 13.0449504827 0.386353712248
2863 1 22.6715454124 13.7910338226 2.56297256591
2869 1 21.7401530625 15.2572841846 0.777926951304
2871 1 23.4194998097 12.940447776 0.368441846126
2870 1 24.1956131845 15.2034603872 0.830630492025
3529 1 25.8439591005 12.9543290787 0.410418736088
3534 1 25.0767829438 13.7252380629 2.65192105649
3535 2 27.5423237903 13.7989855633 2.48340827644
3541 1 26.6182114096 15.2383505575 0.809872382309
3542 1 29.0668094648 15.2343188103 0.813790513683
3543 1 28.2960417149 12.9332666515 0.351883311274
4201 1 30.7647907296 12.9579484477 0.359214502856
4206 1 29.877961124 13.7307631447 2.58341125263
4213 1 31.4870545266 15.2842400452 0.781657036657
4209 1 33.8782669585 11.7003566305 2.27143625172
4207 1 32.2087596739 13.7471883239 2.45054205359
4215 1 33.3955107708 13.0311857224 0.293478351874
4226 2 34.5203388417 13.9048069566 2.45187271567
4214 1 33.8784312012 15.4790815494 0.876595699385
4878 1 36.0694095576 14.3380440722 0.772463743182
173 1 38.9847997868 13.6727856106 2.86124251049
4887 2 37.4343545946 12.3248952805 1.47981730094
318 1 38.9264718175 13.730167764 0.130810058326
4898 1 36.7511030803 14.0407509262 3.09056837092
178 1 2.69525641533 18.583767955 2.74713952802
198 1 3.31415113483 16.2521023469 3.23948625715
310 2 2.21312622163 17.0080987107 1.0743437739
190 1 0.200391746285 17.5675259225 2.32014549952
183 1 3.62912048787 19.3003032754 0.650201816353
179 1 1.08563353361 19.2235066344 0.682184106591
180 1 4.45278274973 16.9942749326 1.04023395555
845 1 5.85768333775 16.2600882795 3.21692532502
849 1 5.12692970889 18.5497674326 2.79752236062
850 1 7.50412665749 18.5368638046 2.83897427352
851 1 6.83337173625 17.048366984 1.00202408568
841 1 6.08646777285 19.3242150967 0.605547570307
852 1 9.22410395841 16.9390527486 1.02595537556
870 1 8.3573618514 16.2696129955 3.26790778556
1517 1 10.8176027601 16.254196707 3.33094574307
1521 1 9.83174342042 18.5537435807 2.72600724294
855 1 8.58932462001 19.2485212211 0.775148997572
1513 1 11.1488997369 19.2656544741 0.688555498345
1523 1 11.713887529 16.850214656 1.01167509873
2190 1 14.3984579602 16.2112931193 0.795025297342
1522 2 11.9973011159 18.2554542233 2.74550235359
1524 1 13.7846081462 18.4814934582 1.54070982157
1542 1 13.5057132345 16.1362326035 3.05836967295
2193 1 15.7453401846 17.5382724829 2.40928252756
2194 1 18.283769982 16.3428627356 3.1797370955
2199 1 17.7916812279 17.6329155324 1.23441535558
2867 1 19.5709992797 18.3083817857 3.34222021217
2215 1 17.3807268065 19.0754160393 3.53450199412
3007 1 20.1946845025 17.4641860473 1.17622449345
2888 1 23.4240135166 16.0177187315 3.00171030748
2868 1 22.6088088343 17.4624607412 1.22348363893
2886 1 21.8639811645 18.287788202 3.41024297008
2861 1 20.9913069696 16.0579475641 3.00037417187
2887 1 24.2516234252 18.2689227546 3.4235930095
3533 1 25.8608922249 15.9840035825 3.02653481332
3539 1 25.0289220122 17.4699855429 1.24358006862
3540 1 27.4640020175 17.4926779474 1.25821300543
3558 1 26.6729042226 18.2478970124 3.46738068664
3559 1 29.1094970679 18.2556740432 3.49346271529
3560 1 28.3011744154 16.0057014392 3.04160238197
4205 1 30.7706214098 15.9839063575 3.06066997164
4211 1 29.9039947075 17.4971367412 1.2744797966
4230 1 31.5505214191 18.2584547724 3.54274551704
4212 1 32.3479668548 17.5102488055 1.30217007823
4232 1 33.2352316783 15.9814313642 3.20292160428
4883 1 34.6710243824 17.7901388307 1.46102848994
4231 1 33.9831261884 18.2829481835 3.68268112255
4904 1 35.7069921992 16.1882616617 2.84715876497
4885 1 37.9778030668 15.7841103837 1.06820589349
321 2 37.2474836887 17.7886051361 1.91173086931
4886 1 37.9942629757 16.1207603277 3.54359804617
181 1 1.82169170855 20.8135294764 2.32450876641
360 1 3.62848082481 23.1549939048 2.01491144283
353 2 1.36098987223 22.9997004912 1.98043427227
340 1 2.91959073777 21.5652204099 0.347927522375
182 1 4.35856013974 20.8267368631 2.38807968595
853 1 6.79625286523 20.8434885117 2.36160677973
1010 1 5.98410250036 23.1295138699 1.9504278447
1012 1 7.67809897784 21.5159800045 0.146472827385
1011 1 5.24434033483 21.6110127182 0.179414970214
854 1 9.24733284661 20.8649121774 2.44564827161
1032 1 8.37856942973 23.097803216 1.9316687984
1525 1 11.7118023438 20.7711384195 2.45716040666
1683 1 10.1122458855 21.61389393 0.282231384181
1682 1 10.7865669744 23.1251948823 2.00219548692
1526 1 15.2229483597 19.685224306 3.4291868089
1527 1 14.1096343346 21.1412810985 2.12228535061
1704 1 13.1254614065 23.2655132381 1.98247028581
2355 1 15.1413000469 21.9292960359 0.126650899633
1684 2 12.4596621677 21.7487050492 0.262979875315
2195 1 15.9521881023 19.7520735681 1.11560944908
3026 1 18.5700063168 19.8140560533 1.49353058671
2197 1 16.9697968652 21.5388219746 2.30749779771
2376 1 19.2693940873 22.1581268905 1.79937607686
2198 1 19.7878893576 20.7121691089 3.4807264437
2866 1 20.9577002255 19.7691811725 1.62112913598
2889 1 23.3909323963 19.7582849213 1.65475666362
3032 1 21.7143023954 22.0370311895 2.02252658376
3033 1 24.1573584034 22.035907052 2.09210969494
3538 1 25.8254628604 19.7481612341 1.68314144996
3704 1 26.6103391178 22.0330365148 2.14113852668
4210 1 30.7011728496 19.7877143513 1.74613262311
3561 1 28.2631521913 19.768681065 1.7169691629
3705 1 29.0801967294 22.0495245639 2.17641781849
4376 1 31.5854983273 22.0777396431 2.21080218651
4233 1 33.1228715659 19.8182961647 1.84048265942
4377 1 34.3481751446 21.9550493299 2.14990028537
4882 1 35.6547799683 19.8515261457 1.99672578292
177 1 38.6076954095 19.9035021117 2.4995755856
5043 1 38.8506416955 22.1485519967 1.71204483813
5049 1 36.9214584996 21.4021254543 3.3497890514
5048 1 36.8100656527 21.570849843 0.585217512062
4884 2 38.6569919669 20.3887249346 0.125489332521
343 1 2.68427826076 25.3752018563 1.61357853548
366 1 3.3169520691 26.9884424104 3.30338821257
5073 2 0.83551136485 26.4573433702 2.57401646583
1013 1 5.8137822609 26.9480126411 3.29918771702
1014 1 5.08822116567 25.3960311347 1.51414781461
1015 1 7.5247403806 25.3677607669 1.50582080388
1038 1 8.28485829982 26.915816419 3.26606227962
1685 2 10.753239129 26.9315621606 3.26473990745
1686 1 9.94930914211 25.3622299225 1.47997087463
2354 1 15.4313146093 23.3108877186 2.15623088972
1687 1 12.3850874717 25.4672681504 1.49540432568
1710 1 13.2410801555 26.9405920763 3.32006910411
2358 1 14.7739526827 25.4407306891 1.50034014146
2357 1 15.694868266 26.7245273684 3.42628382801
3035 1 17.0489053936 26.3557324135 0.878050222509
2505 1 19.3350949697 25.7582753416 0.822253978286
3046 1 18.1816269381 26.5906133796 3.37333349825
2359 1 18.3310587099 23.54704479 0.186570071661
2374 1 17.5065390226 24.4644998206 2.26091146871
3030 1 20.0431593526 24.3276653596 2.45288468159
3039 1 23.2761949843 23.5362378392 0.337999341656
2364 1 20.8209930039 23.5382903021 0.29436210759
3031 1 22.4909646639 24.3109896351 2.52643233092
3056 1 23.2138934924 26.654990405 2.84600972825
3029 1 20.7507604373 26.6111353455 2.84207192204
3037 1 21.7484196555 25.8010551503 0.76336991721
3038 1 24.1154945084 25.8234670796 0.751950334453
3697 1 25.7129213741 23.5190218974 0.372989567883
3701 1 25.6816366534 26.6114788004 2.9853227639
3702 1 24.9196377219 24.3276657266 2.55338329576
3703 1 27.3610551675 24.3177155089 2.61140775415
3709 1 26.512430043 25.7777611508 0.856807762422
4369 1 30.5805365883 23.5605232895 0.458349094726
3710 1 28.9159472403 25.8048201321 0.885461045712
3711 1 28.1505889633 23.5342158819 0.420886598782
3728 1 28.1319291153 26.6076625842 3.04143352725
4373 1 30.5755886856 26.6247854161 3.08481943342
4374 1 29.781085812 24.3436257114 2.64042918016
4381 1 31.3009578577 25.8663232819 0.887318398212
4383 1 32.9961918097 23.48907511 0.591131442252
4375 2 32.1727470048 24.4524153702 2.66828501358
4382 1 33.7222164277 25.8639947118 0.946838565159
4400 1 33.0272413096 26.6841902269 3.08556174934
5045 1 34.7166050447 24.4773089243 2.66600086342
5087 1 35.508036796 26.8120828467 2.9749698531
5046 1 35.4079621583 23.50805891 0.428820287336
4901 1 36.8863667025 23.3891456498 2.17102701764
5066 1 39.3124837505 24.5671958893 1.82011334991
5055 1 36.1669489107 25.7896252847 0.797429725401
356 2 37.2729566468 25.2732124896 3.2026633562
5041 2 38.3377730494 26.2230862075 0.177959328359
347 1 2.05842152333 27.8284133917 1.1269449432
337 1 1.02367233241 30.0609477325 0.832373560772
346 1 2.64760959114 29.4900627493 2.87516239828
351 1 3.42574071102 29.9986141946 0.652270149095
5062 2 0.316596124914 30.1779332418 3.10163989265
348 1 4.33748798273 27.7113994397 1.16235282404
1009 1 5.85610849861 29.9065537191 0.642626126951
1017 1 5.03762399199 29.2575164352 2.86111498475
1018 1 7.47498673101 29.199228391 2.81951754122
1019 1 6.719705654 27.6352192989 1.08129650042
1020 1 9.14239263682 27.6405871529 1.06010101768
1023 1 8.28528507456 29.9131232026 0.613192755373
1681 1 10.714696866 29.9302576736 0.616975236783
1689 1 9.9077972076 29.1961481014 2.81284753852
1691 1 11.5839708132 27.6842079491 1.06145392955
1690 1 12.3575173198 29.1802697456 2.8283750733
1692 1 14.1383077458 27.671012688 1.13095150509
1695 1 13.1547233637 29.9464009608 0.646437846359
2361 1 14.7489998515 29.2918443811 2.86577492701
2353 1 15.5829460627 30.1227977371 0.708005517459
2366 2 16.5475910838 28.2190681894 1.93691955278
3198 2 18.2904979928 30.5164448272 0.958952223321
2362 2 19.4366666045 28.5813185146 3.50642306259
2381 1 19.1634370585 28.1106323525 1.18721545916
3057 1 23.1469952183 30.4460863584 1.82006251304
3034 1 20.4956352875 30.1943136734 1.62557842422
3054 1 21.7017740897 28.8103161601 3.32128755315
3036 1 22.1439784909 28.3846448414 0.900679848364
3055 1 24.0762797431 28.8772645186 3.40818642905
3706 1 25.6030681803 30.3758438612 1.70527733448
3707 1 24.7569910232 28.1172398978 1.22604959343
3708 1 27.2274858977 28.0783337191 1.27283482409
3726 1 26.4903547862 28.8779481778 3.44443612086
3729 1 28.0531771984 30.3364986354 1.70986573271
4378 1 30.5004342422 30.3731031984 1.70474121645
4379 2 29.6759760941 28.0946271877 1.28068356822
3727 1 28.9303792585 28.8733262253 3.48964408618
4398 1 31.3845837324 28.9121154494 3.48984135046
4380 1 32.0898259188 28.1213054614 1.2757410571
4401 1 32.9008168274 30.4020475548 1.66656745346
5051 1 34.4446520407 28.1152855439 1.12561813672
4399 1 33.8299836041 28.9233922754 3.39492171375
5050 2 35.2123927145 30.4121225435 1.53259172919
5064 1 39.2246985822 28.1219997769 1.58688160595
5070 1 36.8047212326 28.1368213703 1.02995808686
5206 2 38.2428826486 29.9257536921 0.304918949333
5069 2 37.3925879386 28.527981817 3.12848033073
349 1 1.65730769102 31.917916078 2.34922058626
528 1 3.40039084657 33.757600957 1.88605278392
508 1 2.6467704825 32.2831751217 0.240942510549
5223 1 0.820791160962 34.0079679462 1.08162469684
520 1 0.069803585172 33.9204089142 3.30488176564
350 1 4.10295803324 31.500914466 2.42043843031
1021 1 6.58694220804 31.47982624 2.382292174
1178 1 5.80311648817 33.770313947 1.83569713134
1179 1 5.03395993469 32.1363371288 0.177722672833
1180 1 7.44940107705 32.185437985 0.157449041096
1022 1 9.04624544426 31.4591075414 2.3712407208
1200 1 8.21240315547 33.7523928897 1.89079326163
1693 1 11.5008009209 31.4605306309 2.37221397524
1850 1 10.640373506 33.7494040982 1.91308972763
1851 1 9.85613238954 32.2173133034 0.152124899007
1694 1 13.9729112137 31.5093850411 2.38040356248
1872 1 13.0809089416 33.7743549318 1.92181065858
2522 1 15.5394669406 33.8408526409 1.93658094408
1852 1 12.288934381 32.2249846758 0.163422870462
2523 1 14.7282141757 32.3012334932 0.195559191817
2365 1 16.4733068639 31.596099436 2.45441635004
2543 1 19.1098174545 32.2603537181 2.45375525463
2524 1 17.1598337645 32.3955494318 0.277238995762
2688 1 17.9185342233 34.1095732953 1.83596266296
3194 1 20.7157840226 33.8395837679 0.467711543491
3200 1 21.5947304521 32.3532284343 2.11277519334
3207 1 23.1558824023 33.9283545994 0.35250494541
3199 1 22.4793929398 34.6636285633 2.63628903603
2550 2 20.1757632329 34.5591352086 2.48568750704
3201 2 24.1705342562 32.7344570972 2.15961913376
3865 1 25.6309622207 34.185073308 0.391737926364
3872 1 26.4944066989 32.6443168774 2.13696980344
3870 1 24.8561403404 34.9485392033 2.57867735268
3871 1 27.2592912447 34.940790931 2.55931094261
3873 1 28.8996261894 32.5889514871 2.14921495989
3879 1 28.0513331147 34.0848408392 0.355942722778
4537 1 30.5301807177 34.1020721072 0.365733806826
4544 1 31.344361871 32.6449607826 2.1175284567
4542 1 29.7073831647 34.8565741788 2.63034326227
4545 1 33.8148371591 32.6600822334 2.11785345685
4551 1 33.0025066486 34.1396960251 0.357226519198
5209 1 35.5628857262 34.2133194109 0.466129286177
4543 1 32.1354459436 34.9188053265 2.57051442111
5214 1 34.5697043154 34.9315662948 2.59838463016
5216 1 36.2783303436 32.4774638313 2.37960983903
5362 2 37.9890816414 33.632139153 1.1207845155
5052 1 38.7209283981 31.8759385464 2.2544220588
5215 1 36.9421043438 34.9352950915 2.6034206298
5211 1 36.9799466783 31.8392419961 0.0294974507895
509 1 0.665869182361 38.6917888033 3.31051550977
511 2 2.56862994239 35.9195716427 1.3863902996
534 1 3.09940126705 37.5536416431 3.23225309429
510 1 1.80778603472 37.9973190499 1.19075164162
506 1 0.467872174492 36.3549916115 2.51314150781
516 1 4.12839213421 38.3119017239 0.968305798782
1181 1 5.62143872292 37.5622986302 3.16904849706
1182 1 4.93892790494 36.0223312691 1.36255412148
1183 1 7.33586680065 36.0264054708 1.39564301427
1187 1 6.50152109203 38.2965216744 0.913014996234
1198 1 6.53805571175 35.2916578877 3.6365165172
527 1 4.14605615309 35.365451084 3.58046394328
1188 1 8.91839660865 38.2942122147 0.94384981817
1206 1 8.10590299735 37.5592393388 3.17270631039
1853 1 10.5634094204 37.5550607437 3.19117699127
1854 1 9.7626471445 36.0241537802 1.43481233051
1859 1 11.353730836 38.2983385994 0.973830205969
1199 1 8.97552071508 35.2818190702 3.66322328193
1870 1 11.4242097141 35.2887532447 3.67722199703
1855 1 12.195089912 36.0283109864 1.45334767302
1860 1 13.7940086324 38.3116572348 1.01949846058
1878 1 13.0190576868 37.5594716613 3.20232055332
2526 1 14.618754879 36.0826284392 1.46407732497
2525 1 15.5472162027 37.5509763804 3.22527196357
1871 1 13.8955845469 35.3197315292 3.6708179192
2527 2 16.8646092301 36.1319602757 1.33512550774
2531 1 16.4233060736 38.4144592433 1.12188995688
2548 1 19.144217375 38.8101334926 2.27620803984
3205 1 21.698856432 36.0621212037 1.00387168379
3224 1 23.051473194 37.1005338456 2.9297906613
3197 1 20.561135977 36.8689037344 2.9399927202
3204 1 22.048277896 38.6569682766 1.23524232519
3343 1 20.2673894797 37.5249140445 0.0363147996377
3206 1 23.9979858706 36.3933712534 0.804769296661
3869 1 25.5072595591 37.2644550162 2.95308969684
3877 1 26.439407967 36.5346658174 0.796083863373
3875 1 24.509894511 38.7972239989 1.19625743267
3878 2 28.9074467062 36.1189685672 0.938151819909
3896 1 27.951228639 37.254685613 2.92725811191
4541 1 30.3761900411 37.2157382435 2.92349151864
4549 1 31.2735389343 36.3780300193 0.799800825368
4547 1 29.4430107259 38.6835497444 1.05403429437
4550 1 33.6505745917 36.4082963576 0.842333326252
4568 1 32.8124170819 37.2256335246 3.00468546497
4548 1 31.9335286636 38.7122813952 1.17415267323
5233 1 35.2378090624 37.2650429055 3.10818335073
5219 1 34.3959512268 38.7239889048 1.24732812049
5213 1 35.982130523 36.6702546748 1.05459715686
5240 1 37.735762124 37.303584307 2.93425952216
5239 1 38.4610048943 36.0327687752 0.63173056771
5234 2 38.9941550217 38.4106389256 1.17107371476
515 1 1.03173882721 40.1201500718 0.616713981274
514 1 2.44557182126 40.0047970463 2.66857057341
517 1 1.52725007467 42.1954737411 2.14237028086
519 1 3.35121610949 40.659963977 0.550133788971
518 1 4.07001251464 42.19360062 2.29627695283
1177 1 5.7150378294 40.6003608874 0.502944718929
1185 1 4.85622902828 39.8503559591 2.72864443499
1186 1 7.2943503977 39.8424033912 2.72596438477
1189 1 6.51136466208 42.1437712856 2.31632122204
1190 1 8.93894468837 42.1316350995 2.32284350674
1191 1 8.12649057981 40.5924729215 0.513651695678
1849 1 10.5544992788 40.5826475719 0.509041120255
1857 1 9.71689502404 39.8113909491 2.69485628141
1861 1 11.3372504133 42.1281054484 2.25842176494
1858 1 12.165439645 39.8339895397 2.71919171592
1862 1 13.690929434 42.1117314403 2.25155962644
1863 1 12.9902191888 40.5576455517 0.491711548988
2529 1 14.5871866484 39.7924932716 2.70415112272
2533 1 15.5050997922 40.5424918513 0.50146854368
2534 2 19.102285902 42.6159018407 1.97287777739
2034 2 15.8975920197 42.0104688363 2.20025660451
2549 1 17.0014198988 39.7331513597 3.11858821275
3202 1 17.9459888436 40.8761896297 1.38652558085
2535 1 18.8585233007 39.299594239 0.0325499951261
3225 1 23.0177664301 41.08904635 1.52532023547
3222 1 20.5915908278 40.9021115835 1.6867760174
3203 2 21.2471079485 39.1805343107 3.29443769385
3221 1 22.1554486599 41.4522148757 3.66191479427
3223 1 23.7906005996 39.4668227474 3.3446910326
3876 1 26.9449736772 38.9601803967 1.28691502758
3874 1 25.3794853684 41.1279554232 1.74140042132
3894 1 26.2725436534 39.5602817462 3.4075341701
3897 1 27.847344806 41.1642706128 1.75648585778
4546 1 30.2924226794 40.99125165 1.62781955327
4566 1 31.1402354392 39.4831387636 3.37686988749
3895 1 28.7321167136 39.5166119005 3.31449989488
4569 1 32.7366115447 40.9981815456 1.65419869798
4567 1 33.5558753175 39.5155928122 3.45225998271
5218 1 35.1296531295 40.9985788452 1.78400505236
5220 1 36.8259495392 39.1535494817 1.4262807471
505 1 39.0227780644 40.8215489094 2.114151978
5238 1 37.151810195 41.6556295145 0.89635495134
5232 1 35.937921758 39.4879576314 3.60807366846
3 1 39.3631728822 42.5444403965 0.0660953693793
22 1 1.64408370647 3.19415567351 3.85034319802
18 1 2.56578199116 0.899720186691 3.93412215923
42 1 3.10659354829 2.37324137169 5.86544591004
35 2 1.87528180571 0.161938871081 6.02753997915
16 1 0.134050431412 2.02163065263 6.26649882885
17 1 0.273302350196 0.926476239009 4.17039244239
23 1 4.12844394113 3.27436142977 3.73367605432
689 1 4.96004643619 0.95474786278 4.08192877325
36 1 4.10028579473 0.114370590131 6.27834503552
688 1 5.64385827208 2.42381402664 5.87114873389
690 1 7.36720163506 0.929197000583 4.10832389424
707 1 6.45960578183 0.152587921405 6.28203075195
714 1 8.08824310913 2.46322179598 5.85307999493
1360 2 10.5806280891 2.57804952938 5.8058998519
1361 1 9.79132457364 0.888490193842 4.13473785225
708 2 8.75125005987 0.119289083181 6.3801791432
1379 1 11.2821888831 0.16919236961 6.18821824282
2033 1 14.7805958003 0.936329004571 4.05406753746
1362 1 12.2692616561 0.907615567572 3.99903833034
1386 1 12.9545075633 2.42298202071 5.78235270839
2036 1 15.3431295067 2.49175185327 5.89592227337
1380 1 13.7458109846 0.143258926758 6.20586546243
2038 2 17.2405662426 1.81524819081 4.92560571437
2051 1 16.1382482637 0.186619571739 6.13937483881
2704 1 18.7349329588 0.127565068355 5.70802159673
2692 1 19.8438316372 2.31134966786 5.01594177578
2182 1 20.3629364284 0.361332158821 3.78648452195
2707 1 22.3317601302 2.28079509581 6.49715357889
2715 1 22.6633237992 1.55232389258 4.12238429144
2709 2 23.6665971271 0.445111206923 6.04615844559
2056 2 19.9411377917 1.61698844565 7.26010599454
2713 1 21.9009753255 3.80821653848 4.75334655269
3364 1 25.4402986262 1.42769034513 4.40771201239
3378 1 24.8266284181 2.39613310725 6.5655461089
3379 1 27.2526820504 2.23980489501 6.55164152664
3385 1 26.5484789165 3.77568853611 4.78296440891
2714 1 24.1901004353 3.81601261366 4.68154463754
3386 1 28.9544070314 3.7401508059 4.77777963064
3387 1 27.9256059168 1.42494015511 4.37703641034
4036 1 30.3834253659 1.38062046772 4.32502044957
4050 1 29.7173975109 2.20724481973 6.53076767626
4057 1 31.3586147219 3.64661139607 4.79007537353
4051 1 32.2122291731 2.15292722235 6.51867119594
4059 1 32.7738657315 1.23220603163 4.2451812637
4722 1 34.8319967267 2.36277247476 6.68178739718
4058 1 33.6704419596 3.33231910614 4.69708984749
4708 1 35.1656536625 1.36545539248 4.43226806856
6 1 38.8380501409 3.10926486497 3.71114387636
4725 1 37.5066136165 1.34290865435 4.42356665793
4728 1 37.0426451338 3.15186584339 5.97689826289
4731 1 37.4808263054 1.22620220902 7.33063293971
10 1 1.78803660492 7.01276245953 5.106424573
21 1 2.55394103155 4.70892470692 5.50785371158
4730 1 0.141881802638 4.30733116371 5.65512267787
4751 1 0.848765788078 6.15326907475 7.1921897738
47 1 3.21649120855 6.29719534263 7.20256064174
29 1 4.13828155795 7.06237042555 5.05599864794
692 2 4.83458526736 4.64055100381 5.49289337734
693 1 7.26661949748 4.77536737557 5.42634000243
700 2 6.50919853216 7.24526418232 5.09497059718
691 1 5.62435249681 6.27653517673 7.18928968924
701 1 8.92108539598 7.03538580022 5.00121103554
719 1 8.02970662317 6.27898618053 7.16683165132
1363 1 10.4355201369 6.26846786183 7.16738170991
1364 1 9.67253493131 4.7615912477 5.40688483658
1372 1 11.3633869274 7.02128570415 4.9743449593
1365 1 12.0849140712 4.72923828708 5.36771241399
2035 1 14.4350091488 4.64529601001 5.39486264798
1373 1 13.9122143741 7.01787280101 4.96195393726
1391 1 12.8006448724 6.24055132491 7.13960317004
2062 1 15.1187631246 6.20474948485 7.24808388531
2064 2 19.6573757002 7.61742235814 4.11616393109
2039 1 17.7499480617 4.04613768908 5.49414803326
2027 1 16.3399337174 5.88501680633 5.2086667803
2063 1 17.5734385447 6.29156623052 7.22308709057
2045 1 19.2395352924 7.67230455211 6.57912255117
2040 2 19.8564005792 4.54450566019 4.67256198838
2712 2 22.8535109382 6.066650717 4.98031321345
2736 1 23.5115619909 4.46479894142 6.90656825862
2705 2 21.3401013403 4.46106140804 7.26039186707
3377 1 25.8282245708 4.64273269681 6.9714184644
3383 1 25.0816645787 6.11793497381 5.18310057127
3384 1 27.4743866659 6.08641123873 5.21088863844
2735 1 24.1329598078 6.90841262151 7.335570168