ITEM: TIMESTEP
44000
ITEM: NUMBER OF ATOMS
5376
ITEM: BOX BOUNDS pp pp pp
0.0 39.5600404449
0.0 42.7297273569
0.0 37.0050293879
ITEM: ATOMS id type x y z
2 1 0.929969665641 1.75524831012 1.77220320302
24 1 3.29912472042 1.75624924968 1.82806005255
4 1 2.44715045367 0.21445770206 0.0413051041756
22 1 1.63159570014 3.37225191147 3.68835751318
674 1 5.74052356466 1.74485033897 1.85258298603
676 1 7.36159493852 0.188909775754 0.0809489155775
694 1 6.55535915319 3.27288193536 3.60237828232
675 1 4.92030650526 0.204072757815 0.10725078193
23 1 4.09258121086 3.30123991498 3.62177869557
696 1 8.19166942964 1.7141026556 1.82928725973
1346 1 10.6497492656 1.67043155331 1.80973219911
1347 1 9.79877698221 0.155334817103 0.0707159702351
1366 1 11.4972452137 3.19801082425 3.55526754486
695 1 9.01874700981 3.24188895868 3.57118438116
1368 1 13.0966306086 1.66827597172 1.81824381424
1348 1 12.2237885438 0.128404131836 0.102303293156
2018 1 15.4962875568 1.67022143809 1.73988520838
1367 1 13.9919583327 3.22855483904 3.58608684484
2019 1 14.6535534166 0.1196732656 0.0205675496102
2020 1 17.8929844641 1.59916145689 1.66354212086
2683 2 19.6216482554 0.55850375292 2.49140759931
2023 1 16.6387783649 3.12757520485 3.63696302936
2690 1 19.6192165233 0.0237100890086 0.100464613218
2167 1 17.2434566476 3.83439759874 1.35263873253
2181 1 19.5097795599 3.21713877541 2.74025911424
2058 2 16.7508280651 0.658812389404 3.62209180691
2695 1 22.3681282211 3.02563815118 2.789120233
2696 1 21.7771613379 0.435267177689 2.22063041587
2689 1 20.6056335952 2.18523475189 0.873440854228
2703 1 22.9738885637 1.97654716663 0.654180057131
2697 1 24.0659840078 0.642205214811 2.32331384627
3361 1 25.4768289418 2.3179920358 0.468629591777
3366 1 24.8122101508 2.95060153271 2.76585806728
3367 1 27.244997623 2.98437786651 2.6850210818
3368 1 26.4276058018 0.717069782413 2.23356096219
3369 1 28.8516347262 0.701147937968 2.22525358172
3375 1 27.9549337129 2.24906888811 0.458259292176
4033 1 30.4304330795 2.24567087975 0.435601009791
4038 1 29.6883505076 2.98276479027 2.65041297496
4040 1 31.2883694315 0.702847436603 2.20097175259
4039 1 32.1236771365 2.99234548232 2.60662674266
4041 1 33.7449686754 0.657145308978 2.1884245163
4047 1 32.8880178518 2.2440254946 0.409252593081
4710 1 34.5324023126 2.9265875138 2.58539762144
4705 1 35.294438669 2.15461828869 0.327554944473
4711 2 38.3388937979 2.0628309241 2.42246490158
4712 1 36.2050222424 0.781076396727 2.07750887732
4717 1 36.7394669264 3.54524850338 1.78131546223
5241 1 38.10866161 1.89434918285 0.160256587244
165 1 2.43470256034 3.99919737131 1.4530047542
7 1 3.30072177652 5.61127887481 3.18105451601
11 1 1.80148322246 6.36730722569 1.20343100856
20 1 0.816423359383 5.63462201911 3.25023831611
678 1 4.91657965985 4.03725651319 1.40508163489
679 1 7.39709921455 4.01055025755 1.38968040488
30 1 5.77917240547 5.57913538739 3.16609314817
12 1 4.23586135033 6.37731304346 1.04901648161
683 1 6.64573780073 6.32549604649 0.976194248201
1350 1 9.86769571077 3.9588029903 1.35157563789
684 1 9.07038662975 6.24834011425 0.904763173659
702 1 8.24291840626 5.54596976771 3.1378708369
1349 1 10.7029602588 5.4512847713 3.09938430493
1355 1 11.5345341954 6.20329365563 0.881413629673
1353 1 9.86615926788 7.73900669211 2.61131812618
2022 1 14.824046998 3.94119943311 1.35749456087
1351 1 12.3495468179 3.94277429311 1.3499001444
1374 1 13.1895369393 5.49630075561 3.1321198259
1356 1 14.0009833042 6.16150836424 0.860332296051
2021 1 15.6544843266 5.39619246108 3.15108230603
2025 1 14.7490265305 7.60849468914 2.63647178361
1354 1 12.32503774 7.66723083143 2.64903321555
2183 1 18.1115790308 5.30691722891 3.27899318402
2028 1 19.3165132049 5.06474686629 1.08704977754
2026 1 16.5529544435 6.15706672801 0.831280059839
2027 2 17.1429306948 7.32979013419 2.71559127169
2693 1 20.6384067732 5.42865572635 3.12924609137
2700 1 22.5981790002 6.57184557743 1.1879997634
2701 1 21.5016952108 4.37362201537 1.09767816719
2720 1 23.152335301 5.32693998699 3.21501244767
2718 1 21.6869920294 7.48324203364 3.57169265523
2698 1 20.5756746387 7.65184766219 1.26945102932
2702 2 23.9434287191 4.37702775965 1.1975757671
3365 1 25.6147542696 5.2731730041 3.15431729785
3371 1 24.9184734158 6.82162548191 1.44014541458
3372 1 27.3156416292 6.83496508098 1.34140999838
3373 1 26.4790890891 4.55172842403 1.02370378189
3390 1 26.4543258307 7.5838794455 3.51085894665
2719 1 24.0284657819 7.61413190196 3.50545129707
3374 1 28.9076666968 4.50453978076 0.898983585155
3391 1 28.8884042982 7.5649374895 3.48476784172
3392 1 28.0691643051 5.28004130552 3.08550644899
4037 1 30.5188107457 5.26959201387 3.0465010126
4043 1 29.7432605633 6.81401110334 1.28737114846
4045 1 31.3993893497 4.5462463186 0.850684073065
4062 1 31.3119358953 7.55232165147 3.43517695634
4044 1 32.2477458657 6.86294844075 1.27436794088
4046 1 34.0379321618 4.50964699719 0.837859528594
4064 1 32.95737934 5.26260932218 2.97669029511
4715 1 34.7712131238 6.86508922924 1.15785169703
4063 1 33.7186970995 7.55673094381 3.29589052559
4709 1 35.3638701039 5.22920247159 2.88652585864
4736 1 39.441693552 4.10460468356 1.50432629875
9 1 39.0315550996 6.46745314132 0.575309697892
4734 1 37.9868834385 5.80278855687 2.92207787154
4716 1 36.8695041622 5.51002374439 0.658211298645
4737 2 36.10420214 7.28651971197 3.31986826994
13 1 2.54474776042 7.98931224816 2.78960261154
15 1 3.38763507296 8.69957988515 0.632887377157
186 1 1.6638252391 10.3049551887 2.30941774904
1 1 0.932406474917 8.61832582532 0.722757722608
172 1 2.51173243264 10.9061808972 0.101037127323
185 1 0.0681086433521 7.93466953132 2.84825077381
4868 1 0.0927607785648 10.8650360473 0.0815743481608
677 1 5.01518418649 7.91520606997 2.7541157918
682 1 7.45682846532 7.86584980241 2.73700656623
681 1 4.2005020402 10.1976983409 2.32523992023
673 1 5.83018143596 8.63956342523 0.555650414495
685 1 6.68603917842 10.1548738477 2.30544528979
844 1 7.46160498213 10.9005622522 0.127382915156
843 1 5.00471035698 10.9324767078 0.128771336463
686 1 9.19348078284 10.1458424612 2.31759705309
687 1 8.27220499458 8.59805681984 0.537625495429
1345 1 10.6661455656 8.46669273641 0.413586466093
1357 1 11.6119804493 9.91485251807 2.06970318618
1358 1 13.9839845598 9.88236327883 2.08655194067
1359 1 13.0327282444 8.42717234228 0.402106940502
2029 2 15.2820334722 8.37754174386 0.360018621621
1530 2 12.7043028245 11.2860798244 3.63545522144
2699 1 16.3239891165 9.7470193095 2.26771717188
2202 1 18.5647563688 8.74445382743 1.77482570806
2350 2 17.9620372037 10.8156901411 1.25688045469
2721 1 22.953817136 9.03152637639 1.73827359065
2716 2 20.6425562576 9.30498149469 2.85171250779
2859 2 22.4350136907 10.789833228 0.0809642119004
2864 1 21.4948692744 11.4601690854 2.37570918023
2865 1 23.9056740556 11.4164493951 2.18380574624
3370 1 25.5269706451 9.1246392058 1.76581891538
3536 1 26.3956290791 11.3973430326 2.19412643411
3530 1 24.7441753135 10.6207035262 0.00688466418519
3393 1 28.0438368459 9.11045707555 1.73275918338
3537 1 28.8446210702 11.3892039441 2.16017880163
4042 1 30.5632691649 9.11329155778 1.70171587671
4208 1 31.2518377324 11.4263390637 2.0601408101
4065 1 33.1045482044 9.1825488813 1.52327962955
4209 2 34.2222844834 9.83817538623 3.37100201778
4726 2 35.5739383363 8.98754284917 0.406197680314
4732 1 37.4687101038 8.12812663431 1.39346563397
4880 1 35.9009548163 10.6620730028 2.04205839172
171 1 38.7283371317 10.2008686916 2.38254961642
192 2 3.34235445249 12.4459483438 1.85460623051
319 1 2.59701113541 14.6978957392 1.45562034534
170 1 0.657535142792 12.5747542366 1.87242984813
184 1 1.77925126051 13.9520251439 3.63124540777
4896 1 0.206657789357 15.1735172015 1.51729580078
842 1 5.8858542895 12.4258996 1.87582172214
846 1 5.08279732857 14.6735967032 1.43479747222
847 1 7.58426195941 14.6764812992 1.44280564646
862 1 6.60794825001 13.9899683923 3.60519942452
191 1 4.19960786429 13.9600181143 3.62266658385
864 1 8.38627300982 12.4135873933 1.92465110685
1514 2 10.8169694379 12.1530826811 1.36238334659
1518 1 10.0984657198 14.6288637424 1.46842430031
1519 1 12.8119747717 14.7599264956 1.61711885496
1536 1 13.445949385 12.3262807384 1.59740544742
1535 1 15.1723667506 13.9098704836 3.13628471311
2186 1 15.1513988402 14.5678754809 0.943762694066
2226 1 15.8499420506 12.1050685901 1.44108827555
2196 1 19.5005213515 15.1746323665 1.30149343586
2206 2 17.334675256 14.2872510376 2.36810887241
2225 1 17.0950129538 12.3379427594 3.47492484602
2191 1 19.5246374377 13.722069032 3.40394943811
2862 2 20.2397241242 12.9631250699 1.34190858108
2863 1 22.2647261277 13.755460664 2.74282350609
2871 1 22.9217445195 13.0213868729 0.481244870205
2869 2 21.9476509887 15.4450771528 0.904338282831
2870 1 24.1954276595 15.1722061667 0.873564893432
3529 1 25.5654622083 12.9052014679 0.457720383484
3534 1 24.8120917414 13.6705283786 2.65307996268
3541 1 26.610692459 15.1553423021 0.864535076742
3535 1 27.2909789344 13.6780334685 2.62629763283
3542 1 29.0345016482 15.2057725045 0.791458294038
3543 1 28.0473762625 12.9279294015 0.402372612822
4201 1 30.4967753957 12.9141039278 0.309252578648
4206 1 29.6889096022 13.6657221486 2.54016601061
4213 1 31.4461640499 15.1605401419 0.704463408053
4226 1 33.6921887097 11.8070581526 2.07055785927
4207 1 32.0684000548 13.7039756377 2.42155692121
4214 1 33.8215889933 14.7153464912 1.01727449014
4215 1 32.9466115308 12.8027793238 0.126956651536
4904 1 35.5860863961 13.1940727666 2.27502661195
318 2 37.657596732 11.9489643267 1.38297521133
4878 1 36.026346423 15.1346374258 0.291343253597
4886 1 37.595289884 14.2025018056 1.8957416955
188 2 38.9674272083 14.117382339 3.61204050703
4898 1 35.6978819841 12.7468142509 0.0271340437708
178 1 2.57798347192 18.4778262373 2.76890079642
198 1 3.43119123299 16.212677527 3.20743881316
310 1 1.93323219234 16.9658166269 1.0034407798
183 1 3.45768156305 19.2006644415 0.504409723068
179 1 1.11295468228 19.2178548887 0.519605289056
177 1 0.0859400249256 18.0747203733 2.41483292831
4919 1 1.03808899327 16.2179298207 3.35214436546
180 2 4.36783942196 16.9400738749 1.06362355565
845 1 5.85514954677 16.2507012861 3.17390149469
849 1 5.04098764409 18.527502594 2.75516418865
850 1 7.4661978325 18.5626283501 2.73932830642
851 1 6.75747325137 16.9726464331 0.99246428379
841 1 5.87748689961 19.2546743716 0.550869821153
852 1 9.20482165696 16.950942766 0.994013551512
870 1 8.27156108969 16.3138371647 3.16217401727
1517 1 10.7016809358 16.4015299861 3.15096328769
1521 1 9.86589571932 18.6342219084 2.70993259761
855 1 8.2829159987 19.2659700639 0.548439289484
1523 1 11.6360967162 16.9775232177 0.905492576511
1513 1 10.6704553804 19.2296997122 0.523555894754
1522 1 12.2710815733 18.8452541953 2.56523758514
2193 2 12.9547844717 16.810817745 2.94247057279
2189 1 14.836659371 18.7303085818 2.25933878454
1524 1 13.0181962338 19.2132436171 0.248879968557
2190 1 14.1218039809 17.0902746753 0.81524843976
2207 1 16.1503345398 16.4397717153 2.33899147562
2194 1 18.5897154581 16.027571853 3.41248665415
2199 2 18.2103651645 17.4284174058 1.66523748897
2867 1 19.4793582289 18.2791703202 3.55604482838
2215 1 17.1018284599 18.5103726771 3.37571861255
2195 1 16.6464769635 18.5012347109 0.452225827796
3007 1 20.3958073407 17.4590952885 1.39753257525
2888 1 23.4399708492 15.9703667911 3.08489600984
2868 1 22.7291051266 17.5628259299 1.344065447
2886 1 21.8965150074 18.2735642554 3.54010218058
2861 1 21.040253941 15.9522061178 3.22510409652
2887 1 24.3299489725 18.2434195292 3.46575725283
3533 1 25.8555214768 15.9526938614 3.04139224305
3539 1 25.1259943055 17.4683210451 1.26441513818
3540 1 27.5336953463 17.4571116745 1.20998536743
3558 1 26.7601479402 18.2375977754 3.42704120223
3559 1 29.1925557888 18.2271426782 3.46400828086
3560 1 28.2979741743 15.9628933272 3.02398490753
4205 1 30.7038981209 15.805741526 3.07584029161
4211 1 30.0234959845 17.4206543681 1.24907850632
4230 2 31.5568667117 18.0490083727 3.42414399436
4212 2 32.6016313841 17.1609449149 0.650530561919
4232 1 33.2182860309 16.3488421425 2.78705423831
4883 1 34.8768064223 17.1292098065 0.775762529294
4897 1 35.4788093981 17.8655987784 3.06839873523
4233 1 33.3501277201 19.2078197859 1.7489481473
321 1 35.6041786587 15.6090873105 2.5870907438
5048 1 35.7856168319 19.2319077245 1.13026333544
4884 1 37.3604866752 17.0709700468 1.4199201134
169 1 38.1875476634 19.2749335839 0.70167163951
5037 1 37.3974643225 19.0904738376 3.04164322195
4918 1 37.8332299456 16.3109827974 3.53922503479
181 1 1.87293887618 20.7102166046 2.26113725948
360 1 3.45325086012 23.0777494194 1.83131165085
340 1 2.68381855801 21.560102466 0.0874384523964
353 1 1.04190542146 22.8945737817 1.70220344382
182 1 4.26116701497 20.7772529174 2.2598994834
853 1 6.66791287311 20.8376292087 2.28005041118
1010 1 5.8798944907 23.1180400383 1.83007699002
1012 1 7.53745176005 21.5830575647 0.0865724608851
1011 1 5.09313894506 21.5581634111 0.0773715335245
854 1 9.06724130459 20.8947646545 2.28485637006
1032 1 8.32715717801 23.1615559855 1.84107956
1682 1 10.8135466204 23.234988274 1.82463592309
1525 1 11.4036351607 20.9954196426 2.12587403253
1683 1 9.99994670606 21.5854380649 0.0949986753045
1543 2 13.6149551799 20.8553441997 1.86576882461
1526 1 15.0821287049 20.2084612299 0.17705245743
1704 1 13.5284037664 23.2798184742 1.80632276288
1527 1 16.1402922875 22.6186586388 0.540991042292
2197 2 16.6961719431 20.5621544131 1.94918789232
3026 1 18.7371087884 19.7078247192 1.76174734411
2376 1 19.2772258862 21.9774252142 2.11612817247
2866 1 21.1080037518 19.7398682542 1.7440073132
2889 1 23.5073179716 19.8045714676 1.73510278959
3032 1 21.8201614137 22.0000046764 2.13805049378
3012 1 20.1599473831 21.1245927455 0.0368340871722
3033 1 24.2758601838 22.0621128689 2.10183824465
3538 1 25.8987140966 19.7523224524 1.60832009565
3704 1 26.673679879 22.00507277 2.13020070489
4210 1 30.6781338834 19.7329930921 1.72820329182
3561 1 28.2933589631 19.7046635079 1.66542314163
3705 1 29.0441526784 22.0162674679 2.12673296817
4376 1 31.3590854818 22.057582008 2.12978000138
4377 2 33.5157167518 21.678630317 1.9947362998
5044 1 35.0006619162 20.4280129888 3.48967492479
5046 2 36.6870581251 21.1849767079 1.61785891191
4882 1 39.1112824268 20.652912615 2.29550921283
5055 1 38.2336365764 22.869791435 1.45726220274
175 1 37.4672294284 21.9698976619 3.61045363941
343 1 2.70530108139 25.3679544336 1.32472526558
366 1 3.3045593312 26.9300244184 3.07497538467
5066 1 0.469412408212 25.1485204727 1.26173919723
341 1 0.892498916602 26.7584070011 2.9489295905
358 1 1.80506372903 24.5635884643 3.45500681566
1013 1 5.75199653235 26.9632854577 3.15201131576
1014 1 5.04185992433 25.3997701646 1.37448416141
1015 1 7.42282427994 25.4150271078 1.39063489274
1030 1 6.65177391648 24.6657057485 3.59892046432
359 1 4.22236789454 24.643593133 3.5794083884
1038 1 8.20011375604 26.9410021395 3.17445806099
1685 1 10.6657048922 26.923538781 3.17652973616
1686 1 9.81016053342 25.4279205676 1.41397029386
1031 1 9.09131062929 24.6820949678 3.62445831831
1702 1 11.5519419219 24.6116811795 3.66663835784
1687 1 12.1564438519 25.4116861786 1.4258783666
1710 1 13.0482581403 27.0293412041 3.1848036448
1846 2 14.3187886402 25.7223032125 1.47935190251
2357 1 15.822184934 26.8669078622 3.34330949892
2358 1 14.003130443 24.9052811603 3.69024779227
2354 2 17.6010416394 23.6387262236 2.28733617029
2517 1 16.2580265919 24.9267012842 1.06729445035
3046 1 18.0734579253 25.9762509704 2.10200732012
2505 2 19.7033456446 25.63889797 0.702063774497
2359 1 18.4107181983 23.6326077081 0.0810719658186
2364 1 20.9866202752 23.4278501108 0.430227937945
3030 1 20.096249456 24.2203211079 2.54337278608
3039 1 23.4237431766 23.5417490593 0.362827292935
3031 1 22.6361170831 24.2563202332 2.5232491728
3056 1 23.3281470121 26.5874401313 3.03284651378
3029 1 20.8278844865 26.5293082807 2.96987827631
3037 1 21.8765472418 25.8074469257 0.828242044593
3038 1 24.2172259161 25.8317907596 0.844434584536
3697 2 25.9031165696 23.6029156906 0.497154739413
3701 1 25.8003943682 26.6196706313 3.0621082807
3702 1 25.0546019879 24.3312684253 2.60659407969
3703 1 27.4867999171 24.3062855907 2.59691351479
3709 1 26.615551252 25.8681492493 0.860024840186
4369 1 30.6982882743 23.5303725004 0.330350825408
3710 1 29.0032817678 25.8299029088 0.83779073805
3711 1 28.2661242441 23.5140371218 0.37380351356
3728 1 28.2322924446 26.6018031979 3.05740695333
4373 1 30.6407971837 26.5730066801 3.01962524537
4374 1 29.9132276716 24.2818254137 2.58009474993
4381 1 31.3616587382 25.8302518693 0.782175026974
4375 1 32.3421178233 24.2198834217 2.52107286804
4382 1 33.6675266323 26.0189191585 0.492028949669
4400 1 33.022874134 26.5148079531 2.85483779437
5087 2 34.6017516491 24.6522929503 1.90615365665
5206 1 35.4220633978 26.703385918 2.75567788471
4383 1 33.1946879865 23.4905363308 0.287742463701
5201 1 36.0697989328 23.4266574732 0.214156409975
5045 1 36.6470496584 24.5361735843 2.80390732569
5192 1 36.0752390875 26.1141444296 0.510062981058
5049 1 38.9484055845 24.4304024343 3.28803409277
5070 1 37.8871910922 26.5513258979 2.43637474588
5204 1 37.9730834511 24.9989620216 0.489863503043
347 1 1.64946797198 27.805028742 0.786605795787
346 1 2.32275994015 29.1717570054 2.68085242339
351 1 3.29858277133 29.9005688422 0.49107367837
507 1 1.0977841794 30.7329881044 1.19190671656
348 1 4.10630186305 27.6551179335 0.903845932332
1009 1 5.72674876446 29.9771687933 0.506504405383
1017 1 4.85330847573 29.2412228406 2.65289490446
1018 1 7.30357535355 29.2024410278 2.73841763828
1019 1 6.53015300393 27.6832437748 0.936486148293
1020 1 8.93731603145 27.6914675749 0.954671481249
1023 1 8.15903651894 29.9755368462 0.525268649482
1681 1 10.6165622445 30.0039821289 0.511269174423
1689 1 9.76694283495 29.2066276992 2.7119993544
1691 1 11.3037922226 27.7345939254 0.951032462927
1692 1 13.6806387388 27.7507963592 0.698304444686
1690 1 12.1933963518 29.2775706697 2.69815825885
1695 1 13.1281192306 30.0519617058 0.545367971001
2361 2 14.4724251613 28.7620245779 2.42980334247
2353 1 15.9573829832 29.8902828349 0.799130436583
3035 1 16.194783007 27.4536414729 1.02775218067
2362 1 19.3529665723 29.1262818133 3.65104657734
2366 2 17.5959753733 28.5510299716 2.4296837926
2367 1 18.8131885493 30.3153905854 1.18079769038
2365 1 17.3186968457 31.0340300548 2.97361069642
2381 1 19.896491866 28.0069896003 1.50511243037
3057 1 23.3310051512 30.3828352796 1.79126512283
3034 2 21.039621515 30.2625165355 1.84828559668
3054 1 21.6738566914 28.8381936528 3.56991978878
3036 1 22.4302893333 28.1372017955 1.31680175198
3055 1 24.1445002289 28.8756972418 3.53891979375
3706 1 25.7435130777 30.4140889079 1.78108542835
3707 1 24.9057628277 28.1313783889 1.32516896198
3708 1 27.3581020255 28.1459189319 1.31794189132
3726 1 26.5860848044 28.9189951715 3.52831519412
3729 1 28.1840609998 30.4451226595 1.77317846033
4378 1 30.6209556191 30.4283137267 1.71063569507
4379 1 29.792345216 28.1394321189 1.2880088229
3727 1 29.0113675605 28.8956686113 3.49556967149
4398 1 31.4385798639 28.8671655032 3.41386248554
4380 1 32.2096146797 28.158569061 1.18858559596
4401 1 33.0814809061 30.4610166723 1.65482799982
5051 1 34.6066112304 28.2469099403 1.05702854622
4399 2 33.7841209715 28.5837804047 3.25227876914
5050 2 35.5838436354 30.3475681225 1.29591253477
5041 1 39.0339168419 27.2784092107 0.572248831757
337 1 39.3548636303 28.9533110056 2.38895949351
5062 1 37.8313733503 30.5977982545 1.69351916686
5195 1 36.977705268 28.3408811546 1.03265199819
5064 1 36.3863379713 28.8612646793 3.35244505217
5222 2 0.223312587483 31.2560615258 3.21365877349
528 1 3.47051068086 33.9038482165 1.90932379979
521 1 1.31542046696 33.2274206773 1.92641256384
350 1 3.90760672255 31.5232477116 2.17412057882
508 2 2.67323746192 32.3000004131 0.261232096487
1021 1 6.4561524808 31.4842485456 2.28567983767
1178 1 5.79182810628 33.7920562749 1.83823779891
1180 1 7.36589009245 32.2682643412 0.0888934809069
1179 1 4.96433452579 32.275627836 0.0690656830232
1022 1 8.91258672352 31.4883842799 2.2876192917
1200 1 8.15925212988 33.7846992702 1.85539423459
1693 1 11.3323181465 31.5260669397 2.26642824594
1850 1 10.5639422014 33.8234326388 1.81707245553
1851 1 9.79798210269 32.2709298933 0.0851880339874
1694 2 13.6109299442 31.7727666958 2.22443718322
1872 1 13.0348219426 33.8841475844 1.78969549006
1852 1 12.240975452 32.2962726497 0.0719701634729
2523 1 14.7435400241 32.228243446 0.130487853348
2522 1 15.6139834744 33.7548265655 1.8462630247
2688 2 19.1309954518 32.6996331457 2.08093154939
2532 1 18.3579384867 34.2389478438 0.69570647061
3215 1 18.0476615191 34.8183087683 3.06776886389
2524 1 17.1872770545 32.0415903354 0.413014910559
3200 1 21.6491095163 32.6059907536 2.26225355696
3207 1 23.2384081233 34.2113851039 0.547668621355
3194 1 20.8442904738 34.2025978241 0.708908630959
3195 1 22.3776423123 31.8566994136 0.10445815807
3199 1 22.6189829487 34.8268894896 2.81620739299
2550 1 20.2640061078 34.8906448368 2.9300901423
3201 1 24.1138712809 32.6769817427 2.21697489218
3865 1 25.672601097 34.2145100128 0.493046922923
3872 1 26.5599302483 32.7067626704 2.19981533338
3866 1 24.8604169464 31.9012334307 0.0496128560986
3867 1 27.3086576215 31.9406810122 0.0155066925133
3873 1 28.9734903021 32.7568000271 2.20319890926
3879 1 28.0980897772 34.2424115159 0.458730407604
4537 1 30.5072413585 34.2603558459 0.426318076322
4544 1 31.3786413035 32.7134527516 2.07608268591
4545 2 33.8410656042 32.9402588668 1.94082847704
4551 1 32.8822203073 34.2967141713 0.334271453251
5209 1 35.2392959042 34.2106071063 0.131377770993
5202 1 38.6427611186 32.7715389838 1.79657312854
5216 1 36.1696867813 32.7156702418 1.85735716296
5362 1 37.5178709787 34.2836256611 0.4182906775
5215 1 37.4667475364 34.4296109813 2.96299523199
511 1 2.48396554504 36.0260186007 1.49157636051
534 1 3.23534309092 37.61881515 3.2129887026
510 1 1.83446274652 38.3670910602 1.19807912335
506 1 0.793378658067 37.6743196442 3.37659518468
546 1 1.66908200569 35.1904093852 3.58062632112
1181 1 5.69298930322 37.6210370453 3.21666501466
1182 1 4.90084574382 36.0773797598 1.46595346913
1183 1 7.35444418987 36.0812264079 1.41654722564
1187 1 6.59130789252 38.3847332263 1.02077689839
516 1 4.18774224855 38.3506639358 1.0127451011
1198 1 6.49868398467 35.329373097 3.59276936749
527 1 4.07175571409 35.3317417813 3.68542079891
1188 1 9.01580998081 38.3782961363 0.986027607523
1206 1 8.14907979019 37.6225523096 3.17702804073
1853 1 10.5959997921 37.6345768361 3.14387117159
1854 1 9.78202993158 36.0992189286 1.3985671162
1859 1 11.4384439171 38.3543107737 0.92418535054
1870 1 11.3221546901 35.343465224 3.56575712232
1199 1 8.91352337908 35.3214218712 3.60150629651
1855 1 12.2212188206 36.1117736768 1.3630921254
1860 1 13.8939535315 38.3194131715 0.912063201934
1878 1 13.0535808846 37.6116478372 3.12363523238
2526 1 14.6455663716 36.0160945631 1.42406813887
2525 1 15.5285342871 37.6431263021 3.08044118384
1871 1 13.6853284592 35.3368939561 3.579431907
2527 1 17.0222105942 36.1126183966 1.27693365341
2531 1 16.3322913393 38.347283095 0.877624958305
2682 1 19.4424917537 36.3730800116 1.20702246259
2530 1 18.0288403766 37.2173041857 3.03810589617
2542 1 15.95515356 35.4305027717 3.63289073655
2535 1 18.7094119271 38.5700166485 0.46994467375
3197 2 19.8223034582 38.7045942074 2.43028396653
3205 2 21.7751842208 36.3115657634 1.44394770109
3224 1 23.2929388356 37.2344288277 3.25743100962
3204 1 22.3269978808 38.7537441557 1.63583644364
3214 1 20.8740638488 37.1864928462 3.67321592889
3870 1 25.002459909 34.9729622807 2.69487352016
3871 1 27.4058356813 34.9917457268 2.69253585608
3206 1 24.0521813743 36.5068909417 1.03231883061
3869 1 25.7241720459 37.2656535763 3.17149764681
3877 1 26.4667927405 36.507269447 0.964653882367
3875 1 24.790281985 38.8010294471 1.45033184913
3876 1 27.2261470173 38.8166712117 1.39186118213
4542 1 29.8533701293 35.008052138 2.68379031427
3878 1 28.8901270157 36.5254269335 0.927451515444
3896 1 28.1582305519 37.2903808917 3.14336094888
4541 1 30.5991236102 37.2984195966 3.13689225061
4549 1 31.2994388673 36.5157426565 0.910430511386
4547 1 29.6372911458 38.8275344708 1.37420381651
4543 1 32.3215832583 34.9653055196 2.68091853196
5214 1 34.8439876788 35.1118384537 2.40074257349
4550 1 33.6714134956 36.5752818205 0.819960712708
4568 1 33.0121010425 37.3294385338 3.05584276172
5233 1 35.381313352 37.4347841252 2.88546658373
4548 1 31.9989243932 38.8443740264 1.33876279409
5239 1 39.4766508706 35.2830950267 1.78189306784
5217 2 37.9249390675 37.0296518554 2.89422536534
5213 2 35.9853276202 36.4228409102 0.596796975228
5220 1 36.7056486323 38.773481567 1.45565562988
513 1 39.0771017284 38.154914124 1.21636271251
514 1 2.54450610681 39.9513211326 2.81069895815
517 1 1.72737960355 42.2115836155 2.29611561088
519 1 3.40688195909 40.6890984814 0.623186969157
505 1 0.100261583207 40.164714371 2.73769986954
515 1 1.01600263082 40.556819122 0.569473060916
518 1 4.14740573739 42.2203912318 2.32842970928
1177 1 5.79449319022 40.6410159047 0.557545882352
1185 1 4.94355394257 39.9020223797 2.76570724896
1186 1 7.3883011446 39.9041303109 2.75144382146
1189 1 6.56835442697 42.1898787056 2.28527924475
1190 1 8.9881645513 42.1552835078 2.28826839263
1191 1 8.20123924375 40.6391101797 0.538041133812
1849 1 10.6181569793 40.6201756082 0.524828753522
1857 1 9.83242322326 39.9072902839 2.74148188283
1861 1 11.4024410622 42.1124738634 2.28398477616
1858 2 12.3393250378 39.8112442188 2.61954205444
1862 1 13.787338538 42.0905022184 2.2184726942
1863 1 13.0390960602 40.5770357446 0.458243774806
2529 1 14.77591372 39.8900337383 2.65543773783
2533 1 15.4494269803 40.5114458814 0.379955066441
2034 1 16.1893534339 42.0347873297 1.95910724066
2549 1 17.2975617969 39.6742826794 2.61527998506
3202 1 17.8704704918 40.8051939067 0.534326010831
3225 1 23.1219361715 41.0584863213 1.94421998345
3222 1 20.6178352726 40.9951974488 1.96390893971
3223 1 24.0382672077 39.537775669 3.6248133124
3874 1 25.5717293145 41.1299487108 1.84431944468
3894 1 26.4903006553 39.5876085959 3.58616706218
3362 1 24.672153107 42.6948286802 0.0690056065333
3363 1 27.1454838297 42.6826224134 0.0423874951429
3897 1 28.0128950588 41.1346056612 1.81297087966
4546 1 30.4327538372 41.1337814771 1.79676178856
4566 1 31.3433560746 39.608559731 3.58821743461
3895 1 28.9182501627 39.5997167132 3.58152827605
4034 1 29.598315869 42.6783853441 0.0164120701188
5219 2 34.2432155084 38.9390042223 1.18449268844
4569 1 32.8045964021 41.1544529487 1.76699373025
4567 1 33.7485989562 39.6750609421 3.49042930645
5218 1 35.086278156 41.1152428309 1.62813612444
524 1 38.9341204086 42.5067246273 2.1403675805
5238 1 38.2956425358 40.3587874841 0.664515543951
5232 2 36.0811485168 39.7089181457 3.65746429239
4707 1 36.9480732889 42.4012367217 0.0825169070838
5237 1 37.1246599823 41.2657246752 2.47644481492
17 1 0.154689927706 1.0851796401 4.09586424905
18 1 2.50288772172 1.06821658604 4.0554386872
42 1 3.21754552681 2.58287296932 5.85207787071
35 1 0.704352936724 2.64835636016 5.87167362495
531 1 1.64231038069 0.357551981273 6.28069547713
36 1 4.07801133423 0.29852862789 6.27911266129
689 1 4.91615636967 1.03061528548 4.065203426
688 1 5.69494756714 2.52573186831 5.81882002341
690 1 7.34870000698 0.974952342527 4.03763673053
707 1 6.52564028438 0.244486046985 6.25220633257
714 1 8.1425330695 2.48778239206 5.77670029366
1360 1 10.5796156036 2.45260743552 5.74115138942
1361 1 9.77962171562 0.963819842686 4.00403164713
708 1 8.96644786237 0.212154284928 6.22552921067
1379 1 11.4296202374 0.207622313377 6.22917587961
2033 1 14.6132987921 0.964355254479 4.01908188734
1362 1 12.2170426327 0.908517719519 4.00434608546
1386 1 13.0187313822 2.45412360357 5.75948729091
2036 1 15.3644270045 2.79825538922 6.08916024317
1380 1 13.8800951057 0.206843190582 6.20632109595
2694 1 18.6755134682 1.34243029898 4.56887026737
2038 2 17.633508962 2.60933990038 6.0303259412
2051 1 16.2604168776 0.48736448821 6.09439947613
2040 1 19.1608477973 3.8402708764 4.89943736006
2704 1 18.5005929983 0.455199977772 7.10919137015
2534 1 20.9014471738 1.72381785175 4.15242446499
2692 1 19.9248068519 2.44374903411 6.70149841482
2707 1 22.4054014705 2.41471098019 6.66578971918
2715 1 23.2326169923 1.48786813774 4.48266555077
2182 1 21.345335939 0.532657896213 6.04181207052
3364 1 25.65049377 1.45112345987 4.47699930542
3378 1 24.8246059427 2.24672829201 6.65782748051
3379 1 27.2611989643 2.23838794871 6.63492275459
3385 1 26.4381822005 3.76111970715 4.88356198397
2714 1 23.9872341999 3.79257774351 4.94583414105
3386 1 28.8829087061 3.76073467559 4.84184658023
3387 1 28.0749210569 1.46130337277 4.44014391315
4036 1 30.4998066252 1.45620079085 4.41857059496
4050 1 29.6991598086 2.23695555419 6.59710436565
4057 1 31.3255081095 3.74787997831 4.82776542593
4708 1 35.1821003933 1.55262958227 4.41646091916
4051 1 32.1688073474 2.23001447891 6.59390536611
4059 1 32.8938178539 1.48281160912 4.39700998104
4722 1 34.7232345807 2.21601469686 6.62049551762
4058 1 33.7634968695 3.80975602656 4.80223669855
4725 1 37.3490034255 0.963274621459 4.1995363756
4731 1 38.7791331105 0.461309797467 6.25163749204
6 1 37.3919418455 2.52627800193 6.24304861176
5 1 38.5306723557 3.6162074031 3.99316817761
4729 1 36.1887817102 3.73546259647 4.51980061655
4724 1 36.1533636502 0.115787166083 6.13022515534
10 1 1.8215022614 7.21124062653 4.92367972947
21 1 2.49585960219 4.89471819287 5.40391138439
47 1 3.44903794246 6.41530975124 7.10914733655
4751 2 1.1517873318 6.62248004072 7.11261310864
4730 1 0.0267838813554 5.05730544442 5.47337305629
29 1 4.23309726373 7.14753975185 4.91511077265
692 1 4.94573543377 4.83392749921 5.36630725408
693 1 7.39250796034 4.79700640943 5.3500471239
700 1 6.66087775249 7.10845437179 4.92519200171
691 1 5.83475522236 6.34877190315 7.13163585137
701 1 9.09504529703 7.06218783613 4.8852033705
719 1 8.26067315743 6.32249353855 7.10325980151
1363 1 10.6868494327 6.28071416975 7.0478443792
1364 1 9.8377637997 4.764309167 5.32254037729
1372 1 11.6002202059 6.94229076305 4.89602475851