ITEM: TIMESTEP
18000
ITEM: NUMBER OF ATOMS
5376
ITEM: BOX BOUNDS pp pp pp
0.0 39.5600404449
0.0 42.7297273569
0.0 37.0050293879
ITEM: ATOMS id type x y z
2 1 1.01983882417 1.78506154826 1.72607629944
24 2 3.59275481772 1.5515072549 1.96490981989
4 1 2.54657838008 0.314377504314 0.186496101112
165 1 2.4975296426 3.79448519319 1.79625232896
674 1 5.85756886897 1.63128026848 1.99144044138
676 1 7.45666146331 0.098828056143 0.203194555461
675 1 5.02939650739 0.153068285439 0.166614677299
696 1 8.22973966333 1.59363314779 1.99689909464
1346 1 10.6323851332 1.62474754902 1.95956159262
1347 1 9.88131301633 0.0824038617805 0.214894086054
1368 1 13.0427913913 1.63626778503 1.90669775173
1348 1 12.2895009295 0.0972107229772 0.14720157987
2018 1 15.4600935057 1.6211966136 1.86923231756
2019 1 14.6988927613 0.121757490953 0.0572840341815
1367 1 13.7887262433 3.16817673236 3.66905415636
2534 1 19.6772280917 0.475923298226 2.93876353799
2683 1 17.9165545856 1.53657025588 1.80859421072
2020 1 17.1159848813 3.7640729411 1.5553841924
2170 1 17.0724347603 0.115692655255 0.00121348807938
2690 1 19.4710477618 0.344725306243 0.0912982214165
2023 1 16.2282901003 2.97477655907 3.68145574696
2181 1 19.8798456263 3.36256907434 2.49168286701
2695 1 22.4086748814 3.05177659428 2.56757371914
2696 1 20.9997117546 1.67611286864 1.26594865083
2703 1 23.0851366769 2.38941072703 0.179858398685
3221 1 22.0227665553 0.17395912746 2.82959163869
2697 1 23.9783748069 0.90604153672 1.97528308877
3361 1 25.5471142702 2.23872723409 0.313990194313
3366 1 24.7982507975 3.07354005427 2.51885617944
3367 1 27.1986446092 2.99880655593 2.53719349909
3368 1 26.369514402 0.714539074439 2.10843729532
3369 1 28.807212363 0.681751657468 2.08970568598
3375 1 27.9774708061 2.21591601199 0.330379513825
4033 1 30.3912130217 2.18498739465 0.318647885975
4038 1 29.6149775587 2.98058413243 2.54016624696
4040 1 31.2383188445 0.667437018899 2.08420257531
4039 1 32.0016829556 2.97055145422 2.4781830046
4041 1 33.6756357388 0.6871853126 2.0540258088
4047 1 32.7903321197 2.18072907595 0.33131601351
4710 1 34.489271529 3.06378069051 2.43110869567
4705 1 35.1756575783 2.08083294102 0.36384734093
5 1 39.0126173785 3.26494578022 3.19573420398
4711 1 37.4420458101 2.55052897328 1.4066365297
4712 1 36.0717433505 0.742381170641 2.18921166942
524 1 38.5642678856 0.499173818958 1.92099878221
4729 1 36.545876705 3.51153218027 3.35447452727
7 1 3.23893570025 5.47526857944 3.30341356473
11 1 1.88199551163 6.14776490607 1.23157439393
20 1 0.553704326332 5.54574468473 3.16567851672
4870 1 0.215330929678 4.0006990279 0.865301399979
678 1 4.95656354488 3.91049700148 1.58370451588
679 1 7.38048465982 3.90504052258 1.55828507633
30 1 5.70701974481 5.4605599687 3.30626969967
12 1 4.19953998577 6.1972186827 1.12968402192
683 1 6.59769303583 6.21628816726 1.12404273983
677 1 4.9739698775 7.76400479041 2.88114758193
1350 1 9.81239876818 3.9207235152 1.53156491468
684 1 9.0196948028 6.22302158523 1.10633007036
702 1 8.14440903318 5.46036794412 3.29748588152
1349 1 10.5889462246 5.4611778965 3.27673914438
1355 1 11.4552764955 6.22196815097 1.09187544538
1353 1 9.81990482316 7.76635610019 2.84997346151
2022 1 14.676707694 3.90255791205 1.4954900861
1351 1 12.2409416991 3.92514969885 1.5029894218
1374 1 13.0334272183 5.4517519517 3.27085472437
1356 1 13.9141718982 6.20423274136 1.10672837877
2021 1 15.4959304785 5.38930088259 3.25528537136
2025 1 14.6563571803 7.72536249926 2.87781331236
1354 1 12.2502618093 7.75784146821 2.84509011186
2167 1 16.4114963937 6.11851791936 1.05270291961
2845 1 19.0983071385 5.0185667832 0.990774881173
2183 1 17.9570608983 5.21292877564 3.23036764963
2026 1 16.9911624261 7.55135521247 2.96313104462
2028 1 19.9623589768 7.21173299074 1.09226613617
2693 1 20.4391306518 5.71979971799 3.06592140832
2700 1 22.2984546418 6.95230125668 1.24420968503
2701 1 21.3580593086 4.45351684733 0.714619324317
2720 1 23.0589619878 5.4146744507 2.87892756635
2702 1 23.903591814 4.58637021627 0.767983250345
3365 1 25.5879965606 5.34408760302 2.94787951585
3371 1 24.7794729321 6.87653392029 1.21992620867
3372 1 27.2346250244 6.82272325822 1.2114858517
3373 1 26.374229874 4.5277850316 0.767961289456
3390 1 26.4423910091 7.61643818842 3.41325045673
2719 1 23.9593224954 7.69652120749 3.3921406748
3374 1 28.8206853451 4.50388973327 0.763250766332
3391 1 28.909299913 7.55282533217 3.41969153949
3392 1 28.0335525068 5.29062377646 2.96529942025
4037 1 30.472978424 5.27019231558 2.95119776424
4043 1 29.6659471449 6.79528057935 1.20510761673
4045 1 31.2508162358 4.4720711618 0.736184821922
4062 1 31.3779185393 7.45403770448 3.50103665388
4044 1 32.0387701118 6.75253237292 1.21017049855
4046 1 33.6785034927 4.46320300912 0.699619047922
4064 1 32.9499322897 5.21840400817 2.90506426132
4715 2 34.2737476582 6.77067086666 1.12297843101
4063 1 33.8013609511 7.35571146732 3.51019564035
4709 1 35.644974955 5.79553213362 2.56317310391
9 1 39.068655479 6.61368683778 0.987178609128
4717 2 36.0753463136 4.2464873439 0.66263600245
4736 1 37.8226787304 4.97838462519 1.98326122331
4716 1 36.6881196366 7.01390120729 0.486252715463
4734 1 37.5870293561 7.27615775735 2.83744254473
13 1 2.58970057952 7.80711202158 2.82971758776
185 2 0.326968547692 7.91528444343 2.79449961964
15 1 3.41411114592 8.49632452372 0.628718413651
172 1 2.57890696069 10.7818802926 0.163764045107
186 1 1.74782927382 10.0730762029 2.42610347468
4868 2 0.317356687166 10.5719003794 0.767233572858
1 1 1.04198450901 8.36362183906 0.422690889097
682 1 7.38810334884 7.76981415476 2.86992584208
681 1 4.16035132381 10.0734377609 2.39351468668
673 1 5.81680822262 8.55130171812 0.687938679838
685 1 6.60382509048 10.087748104 2.42995037236
844 1 7.43200743514 10.8465973977 0.227109953536
843 1 4.98576585265 10.8589957861 0.2135235783
686 1 9.05881739906 10.072031582 2.42049652331
687 1 8.23750463502 8.54347931266 0.679618228214
1345 1 10.6672036287 8.53861408292 0.66174930451
1357 1 11.5240259117 10.0628367158 2.40352695562
1515 1 9.89566626898 10.8455509174 0.226285885302
1358 1 14.0183991712 10.0383572217 2.39678846222
1359 1 13.0918325865 8.51949111303 0.659731321911
1516 1 12.3765748048 10.8482444971 0.216748435028
2187 1 14.8511053277 10.7885241361 0.21086735103
2029 1 15.4852787617 8.49002478457 0.679932061525
2064 1 19.0926040188 8.47496595133 2.88968952367
2208 2 17.7078798973 8.2694240916 0.796892001739
2699 1 16.5104920958 9.97847007786 2.44056062608
2202 1 18.7190147253 11.4419763001 2.34980754729
2047 1 17.3658995031 10.6351867569 0.195960354227
2718 1 21.3955654117 7.83752707219 3.55796819919
2698 1 20.9010373634 9.41815588469 1.71435857574
2721 1 23.2474798379 9.2135855615 1.6641013223
2864 1 21.5705247171 11.6087968761 2.05614112277
2030 1 19.8824345042 10.7945045888 0.0219332288191
2865 1 24.0743107319 11.486771389 2.06252319339
3370 1 25.6913307453 9.15146994606 1.64801615047
3536 1 26.5439084305 11.4197910713 2.08440693737
3393 1 28.1424375884 9.09904528793 1.6510645872
3537 1 28.9936215168 11.3842586244 2.10240297264
4042 1 30.6059039875 9.04093093995 1.68259153625
4208 1 31.4405750249 11.3370383807 2.12936747353
4065 1 33.0305162048 8.95865240769 1.72649769561
4209 1 33.8142705558 11.1150288154 2.24864757356
4874 1 34.6478917 10.8001949074 0.131963953152
4726 1 35.5164108518 8.61900797388 2.08310880411
171 1 38.7576244984 9.98883803404 2.98692274035
4737 1 38.2275256431 8.83946984146 0.917092244757
4880 1 36.30487958 10.9152901405 2.06463896628
4887 1 37.6220042354 11.3471249476 0.224036661487
192 1 3.37158762002 12.3461892206 1.91976743163
319 1 2.53350897055 14.6133538246 1.25525004533
184 2 1.44060830103 13.3671421511 2.84160430317
842 1 5.77394015341 12.3911060506 1.98343956235
846 1 4.93979529247 14.6678711196 1.55797562535
847 1 7.40093892174 14.6317885503 1.54882010756
864 1 8.24096880126 12.3561885343 1.98894231418
1514 1 10.7332594788 12.3663133781 1.98668434634
1518 1 9.84813068134 14.6402666954 1.55332011057
1519 1 12.2587939213 14.6493556486 1.6087527428
1536 1 13.2213702052 12.3244232954 2.03588596266
2186 2 14.4450639335 14.4439317637 1.59082901665
2226 1 15.8629561537 12.3338717856 1.93489821245
2350 2 17.8103342232 13.8956467652 2.34002754571
2196 1 19.1993303142 15.2194498776 0.676466998539
2206 1 16.6505820258 15.0845045495 0.689872868278
2351 1 18.5087586973 12.8379364081 0.23564943723
2191 1 20.1385510052 13.8031068243 2.34572242397
2862 1 20.9292098321 13.008963601 0.188792289451
2863 1 22.5400903982 13.7949879793 2.46737508693
2869 1 21.690653174 15.2533382769 0.687698232579
2871 1 23.3229968124 13.0037289776 0.279054659582
2870 1 24.1408074576 15.2429147439 0.72411440792
3529 2 25.7695335659 12.9498087024 0.317422523155
3534 1 24.9634557881 13.7402863421 2.50964405294
3541 1 26.605318759 15.2179788074 0.760373913988
3535 1 27.4137524224 13.6922919015 2.52820436484
3542 1 29.0395312178 15.1882105935 0.78207069626
3543 1 28.2271101334 12.9215359091 0.340353949152
4201 1 30.6164077929 12.8246498236 0.434613530208
4206 1 29.8876672603 13.6757583369 2.5664693597
4213 2 31.4938296785 15.1426428256 0.86592860227
4207 1 32.4795875815 13.5886817013 2.57420144931
4215 1 33.0297854476 13.0133605915 0.20243371043
4226 2 34.795707509 13.1381980209 1.58130348304
4904 1 35.0431339852 15.1439791023 3.09810412335
4214 1 34.0304401807 15.5047215384 0.922251319735
5027 1 39.3445988778 14.7644443137 1.36729207137
170 1 39.1011727906 12.2426963299 1.95725984725
4898 1 37.0036924179 13.377395602 2.12224467503
4878 1 36.4527522441 15.0727066752 0.604008935485
173 1 38.7996035234 13.9405630829 3.61670405935
178 1 2.54736628416 18.5845236941 2.72363360678
198 2 3.23778404087 16.1961886472 2.7714244162
310 1 1.59103206045 16.9342880941 1.10442570433
183 1 3.33328976118 19.2508765637 0.642551442845
179 1 1.01310567326 19.252974903 0.771031623245
190 1 0.147225203693 18.6227333722 2.82000048686
180 1 4.19325989151 16.9931956884 0.961727887953
845 1 5.71232057691 16.1387613192 3.38322327015
849 1 4.89198507639 18.3360110307 2.99410818433
850 1 7.35367847625 18.321760934 3.08180881869
851 1 6.6280362687 16.8897347192 1.1559764025
841 1 5.71102193059 19.1142037344 0.852056939916
852 1 9.09418711331 16.9138523096 1.07798394195
870 1 8.23333139573 16.0715179871 3.3370034285
1517 1 10.7686641333 16.10499047 3.30036590809
1521 1 9.80527561336 18.3713015045 2.94181987138
855 2 8.0689398052 19.0300296304 1.15575019245
1513 1 10.5703953125 19.1447541231 0.673946641426
1523 1 11.5279652681 16.9201381255 1.07235284149
2190 1 14.080165302 16.8259213643 0.887748352428
1522 1 12.1419427803 18.3673590604 2.90660956476
1524 1 13.0992985576 19.078465719 0.769486275498
2193 1 14.4129651943 18.1745897727 2.95230414602
2189 2 16.1045936782 17.0125573788 2.13645630219
2194 1 18.4201073682 16.1648884741 2.72446195089
2199 1 17.7206434288 17.6451282157 0.855761672001
2867 1 19.4356132781 18.3618333321 3.21585323173
2215 1 17.1733110866 18.5648512851 3.3984099362
3007 1 20.0758721628 17.5343106928 1.02289850324
2888 1 23.3420407724 16.0400158113 2.91080144098
2868 1 22.5225779669 17.5217780253 1.12712467479
2886 1 21.783146872 18.3432144269 3.31476314897
2861 1 20.8871987768 16.0776070679 2.83629912485
2887 1 24.180266899 18.2748222034 3.36395988605
3533 1 25.7755105629 16.0019671035 2.9448898727
3539 1 24.9680137556 17.5002921597 1.17517885623
3540 1 27.397539867 17.4957020116 1.20475030547
3558 1 26.6166783511 18.2859201847 3.39863787223
3559 1 29.0672792264 18.258848611 3.42884892135
3560 1 28.1943538504 15.975421198 2.96458833868
4205 1 30.5818008832 15.9836836378 3.00163849427
4211 1 29.7997296334 17.5088813507 1.24282270144
4230 1 31.6475310756 18.208414545 3.4352086182
4212 1 32.1640215122 17.4344110755 1.11416943266
4232 1 32.8592498284 15.8987826237 3.14463241247
4883 1 34.1815785335 17.7410610287 2.10481489119
4896 2 39.4110921887 16.2206832655 3.03615898153
4885 1 38.6797752845 17.2133985043 1.07525967198
321 1 36.2184038921 17.3705349653 1.14412626011
4884 1 37.70651788 19.3453856328 1.62800881552
4886 1 37.230803637 15.9352576909 2.90385560498
4902 1 36.3657426465 18.6696076905 3.45232001831
181 1 1.99136559881 20.8281898103 2.30134135936
360 1 3.5629435002 22.9056802873 1.9932316
340 1 2.68299090455 21.5174472581 0.162972955275
353 1 1.18391410244 22.9416769929 2.41811579578
4905 1 0.305024024556 22.1211342633 0.214374325838
182 1 4.29708390173 20.6276962376 2.49501097045
853 1 6.66629457039 20.653563496 2.5177803592
1010 1 5.93702478075 22.9214906857 2.02921141375
1012 1 7.54560867803 21.3430366881 0.216345242396
1011 1 5.07153674655 21.4580572361 0.282048842966
854 1 9.07973424351 20.6840635625 2.48266041633
1032 1 8.33230446205 22.9287944675 1.99388993609
1683 1 10.0351658861 21.56526018 0.252840470849
1682 1 10.776802974 22.9747066933 2.03916226123
1525 1 11.4355587361 20.6691482168 2.45758379985
1684 1 12.3575126 21.4108851014 0.283491118212
2369 1 13.749404239 20.6246631013 2.41763039932
1704 1 13.286096789 22.9677824318 1.99980330963
1527 1 14.8672834208 21.2774987099 0.296153858373
2197 1 15.5523299503 22.1260506306 2.80591109162
1526 1 15.8692297391 19.687526539 1.80598664519
3026 1 18.4942700756 19.8708999573 1.4586154088
2376 1 19.3498208664 22.1393110726 2.0881949553
2356 2 17.1972453776 21.9303822799 1.31133637329
2387 1 17.6834228239 20.8021077901 3.58740160303
2866 1 20.8952938554 19.838305315 1.53837757588
2889 1 23.3426094398 19.8014221655 1.59601574912
3032 1 21.7288004345 22.1137577672 2.00167774521
3033 1 24.147026791 22.0865268904 2.04499168826
3538 1 25.7961890478 19.7819878287 1.5922233213
3704 1 26.5589294963 22.0748005655 2.11071555644
3556 2 24.9841136149 20.4354999027 3.67772141713
4210 1 30.6399574817 19.7618320879 1.66037083361
3561 1 28.2185687031 19.7888450783 1.65509154449
3705 1 29.0161093009 22.0803292282 2.07776081158
4376 1 31.4921737903 22.0865408361 2.04342478912
5037 1 35.3883595569 19.7053916859 1.44139701696
4233 1 32.993710648 19.7858381826 1.58811397746
4377 1 34.0393780589 22.06970628 2.03163347645
4900 1 34.3645832244 20.2277742105 3.62598069028
4882 1 36.405747411 21.5719009041 2.59536881379
177 1 39.1690954787 21.0550715033 2.16628235736
5048 1 37.0743629495 21.4435419742 0.264053429671
4901 1 38.0556707572 23.2599141243 1.80452007248
343 2 2.72063203427 25.1058549654 1.52092464854
366 1 3.46058731266 26.6255172583 3.36405719285
5043 1 0.377179713824 24.5807975903 1.10277753172
347 1 1.51708533176 26.9338336593 0.981581187696
1013 1 5.84788144886 26.7162652301 3.34826162239
1014 1 5.06882311087 25.1790648414 1.60177601788
1015 1 7.46320467369 25.2109584269 1.55872556193
1038 1 8.27387879991 26.7592649908 3.28904300337
1685 1 10.6703301327 26.7728063789 3.31335157136
1686 1 9.85997536141 25.254155462 1.52321567446
1687 2 12.0310318013 25.0868704496 1.97198120828
2358 1 14.005723655 25.3595525571 1.00596925848
1710 1 13.0628741462 26.8122509971 3.3260567886
2354 2 15.4214680755 24.3001782432 2.4451501875
2357 1 15.379076241 26.3682983027 3.17945018868
3035 1 16.6749061743 25.899513375 0.942807574037
2505 1 19.1449850209 25.8252736225 0.697906155077
3046 1 18.2583660897 26.6207303735 2.89463445344
2359 1 18.4457079189 23.5464000799 0.27101554733
2374 1 17.6411247005 24.2581923097 2.46811725493
2517 1 15.9341838914 23.6949721664 0.22684364451
3030 1 20.0605695187 24.4183238518 2.40833779315
3039 1 23.3042471896 23.5900777461 0.261493879239
2364 1 20.8416781263 23.6130199927 0.249871207966
3031 1 22.4975297223 24.4257814589 2.39215903203
3056 1 23.2814043663 26.6720950198 2.90659437467
3029 1 20.8273287165 26.6770775676 2.87179440763
3037 1 21.5883215983 25.9398668849 0.675813690283
3038 1 24.0910952033 25.8673829743 0.706047147329
3697 1 25.7506686821 23.5924116581 0.297814694724
3701 1 25.7361372485 26.6229294757 2.93514810148
3702 1 24.9401016801 24.3304479698 2.51759557712
3703 1 27.374962555 24.3401811763 2.52260351187
3709 1 26.5444844722 25.8729032126 0.726377377632
4369 1 30.6811442035 23.6149241097 0.294133941579
3710 1 29.0131162254 25.8849835184 0.744966316
3711 1 28.2081698505 23.6058915695 0.30487630735
3728 1 28.1760832381 26.6320475927 2.95228094438
4373 1 30.6070790738 26.6368451346 2.9529232172
4374 1 29.84859355 24.348282159 2.50723439033
4381 1 31.5115710023 25.8953983889 0.720030759801
4383 1 33.1059266533 23.5790808698 0.337947747726
4375 1 32.3241890972 24.3493858605 2.51408672624
4382 1 33.9979347274 26.0100841198 0.777986599653
4400 1 32.979301732 26.6214934159 2.96383582029
5045 1 34.7228222393 24.2456429866 2.76967332249
5087 1 35.237455705 26.8270993318 3.02406072637
5046 1 35.6063841234 23.3548239224 0.511467656729
5066 2 39.5413183671 26.3842306564 2.74799825652
5055 2 36.291139665 25.2669376375 1.57369154343
5041 1 38.3213735813 26.0318911755 0.601667082003
356 1 37.4468412206 26.5846687638 3.28058873072
337 2 1.10837193279 29.1607246548 0.866019091835
346 1 2.73520642843 28.8808819415 2.670781703
351 1 3.42234525481 29.7531873304 0.589512873713
349 1 1.55178024304 31.0351011092 2.45594138362
348 1 4.17821214627 27.3812233054 1.14805295152
1009 1 5.84403153711 29.7666212264 0.61829880052
1017 1 5.12310644215 28.9785193708 2.78082199571
1018 1 7.51440303679 29.0489860643 2.83079418081
1019 1 6.66030111334 27.4799590835 1.10499814932
1020 1 9.15740817092 27.5268922746 1.05646904569
1023 1 8.29358866926 29.8000575089 0.611551107719
1681 1 10.7673030125 29.7518574745 0.614232479048
1689 1 9.94204880232 29.0498113446 2.82336645545
1691 1 11.7286465742 27.430842051 1.05111112555
1690 1 12.369526077 29.0477820424 2.79354106555
1692 1 14.2985810462 27.7031990134 0.966399361867
1695 1 13.2221197699 29.8460674808 0.62006769509
2361 1 14.7408471038 29.1304748932 2.96154497677
2353 1 15.6548352125 29.9404618167 0.802619304464
2366 2 16.441575516 27.9807463587 2.15531893856
2362 2 19.3976850719 28.5959243254 3.16654546877
3198 2 18.0537826084 30.0221094214 0.564218365424
2381 1 19.9605491756 28.1840000063 1.03885377127
3057 1 23.4595057648 30.3202168088 1.59884653423
3034 2 21.2053884204 30.2056566296 1.41046829648
3054 1 21.7509377023 28.9137409598 3.37311044241
3036 1 22.4626855659 28.1551790558 1.11914604099
3055 1 24.1723622012 28.90288483 3.40483483566
3706 1 25.7975569542 30.4276147112 1.61530629493
3707 1 24.900729369 28.1636987447 1.1547595058
3708 1 27.3438598341 28.1558542199 1.18555149342
3726 1 26.5779446775 28.9185785024 3.40308326178
3729 1 28.1919684365 30.4394970271 1.64453135753
4378 1 30.6145526126 30.4695096657 1.6553066001
4379 1 29.7795595927 28.1795312577 1.21564073661
3727 1 29.0024797264 28.9306966796 3.42157958443
4398 1 31.4165339547 28.9465757947 3.42944466339
4380 1 32.203506536 28.2175056207 1.23608901018
4401 1 33.0577014128 30.5390349065 1.66749471195
5051 1 34.5685988483 28.558110325 1.21983487177
4399 2 33.7680457532 28.929190514 3.35263594719
5050 1 35.4577828085 30.9284291313 1.72988433747
5070 1 36.4388658114 27.3747728237 0.851446352732
5062 2 38.9052506943 30.1755830894 3.37657839991
5064 1 38.7173276946 28.2007568178 1.66032810508
5206 2 37.0767478783 29.6161123809 1.13307509079
5069 1 36.4455442049 28.9478404467 3.39530147386
528 1 3.19754459183 33.5227975416 2.0000956042
520 1 0.700467751921 33.3163325169 2.01431071338
508 1 2.45168975175 32.1478921377 0.357995665908
350 1 4.04630915163 31.1853416613 2.3081027821
1021 1 6.61437928503 31.3186921893 2.33540476993
1178 1 5.73989830725 33.5974550334 1.89892409763
1179 1 4.94744186196 32.0174077318 0.16088698445
1180 1 7.42024400475 32.0914351554 0.175291451
1022 1 9.06839034097 31.3266265788 2.38998096244
1200 1 8.19090999952 33.5993617788 1.96858271584
1693 1 11.521788789 31.3336137607 2.38084635327
1850 1 10.6416001507 33.6013727467 1.93874688814
1851 1 9.8754207019 32.0578843549 0.175489169922
1694 1 13.9882176353 31.3710758631 2.41737049675
1872 1 13.094330517 33.6492749224 1.95155565284
2522 1 15.5441294442 33.7147057921 2.02431067768
1852 1 12.3340066367 32.101199323 0.178227089738
2523 1 14.8088679117 32.1772491288 0.260059346287
2365 1 16.4611264781 31.5314461034 2.57700672381
2543 1 18.8175609104 32.4966735507 3.07356116083
2688 1 18.0580275061 34.0235542888 1.59319119531
2367 1 19.7706423975 31.9573133096 0.81833925745
2524 1 17.2160848296 32.1480518441 0.487015851882
3200 2 21.7421836156 33.2682473742 1.38548947643
3207 1 23.2777343334 34.3605531884 0.275776100702
3201 1 24.0182817671 32.731239809 2.12607835959
3865 1 25.645771076 34.2459323856 0.34044070346
3872 1 26.4773235525 32.7239506578 2.09882996313
3873 1 28.9372231285 32.7401336948 2.08136381555
3879 1 28.0909427442 34.2569784684 0.307057801829
4537 1 30.5259106385 34.2716075863 0.307648441738
4544 1 31.3735423372 32.7638619651 2.11621431934
4545 1 33.825213461 32.7801795007 2.13924935209
4551 1 32.9626821209 34.3345759538 0.344075803725
5209 1 35.4309472878 34.4503644254 0.299378390737
5216 1 36.2309863077 33.1280398485 2.07606349205
5362 1 37.9090308209 33.9943157062 0.442668565317
5052 1 38.2927355235 31.7710608179 1.8520507128
521 1 38.1632762098 34.0390684731 3.3664682745
511 1 2.05952243266 35.7462704134 1.54011127303
534 1 3.38824109111 37.5496686723 2.68773356581
510 1 1.82632500311 38.3403065117 0.919592172281
506 2 1.16146707828 37.4333222174 3.01067527544
672 1 3.54300116927 36.7265898704 0.0147770607125
1181 1 5.9019032877 37.3198448988 3.05245061605
1182 1 4.92909225608 35.8594016839 1.57839871169
1183 1 7.38222141791 35.9029685959 1.57425671114
1187 1 6.75691136725 38.3136463886 1.09700256235
516 1 4.44676685164 38.6421506757 1.01238409216
527 1 4.06189638797 35.1310469652 3.63861698575
1188 1 9.11240006407 38.2447928764 1.15943988793
1206 1 8.24980119205 37.4270134159 3.33099435957
1853 2 10.6335735539 37.2535853919 3.19413195721
1854 1 9.78646907148 35.8839590513 1.47441578384
1859 1 11.448294089 38.2160321586 1.04739064848
1199 1 8.96811264292 35.1429605325 3.69871791328
1855 1 12.1722068966 35.9061163218 1.50404151854
1860 1 13.7703792335 38.2400539666 0.952898319713
1878 1 13.0638223302 37.4612459894 3.18452668695
2526 1 14.4902034555 35.972644436 1.48873472466
2525 1 15.5412390859 37.5053468174 3.21871172779
2527 2 16.678169698 35.9355714993 1.36640370529
2531 1 16.0560841618 38.3326096035 1.01022902399
2682 2 18.2188273403 38.5804173714 0.780868740921
2542 1 16.3641832102 35.2958657467 3.67464124291
2550 2 19.8938163387 35.6644180276 1.77622807799
3199 1 22.3001681728 35.0198380206 2.67462823052
3205 1 21.6745668613 36.6913428341 0.838452131025
3224 1 23.224291242 37.1875280372 3.04159155852
3197 1 20.7422764164 37.224385379 3.3404510183
3871 1 27.2808854443 35.0089966717 2.5113204242
3870 1 24.8103010177 35.0131294906 2.55759126545
3206 1 23.9930933979 36.5780801362 0.798498239678
3869 1 25.6589456765 37.2881363584 2.96600514072
3877 1 26.4404942377 36.5339803972 0.760233585686
3875 1 24.7989795027 38.8371107851 1.21621052748
3876 1 27.2270642223 38.8226101767 1.18389808453
4542 1 29.7196623461 35.0344049951 2.5122898031
3878 1 28.8558678819 36.5440116936 0.749885438479
3896 1 28.0880401408 37.301371472 2.95691215469
4541 1 30.5129998252 37.3058405422 3.003651237
4549 1 31.2743830205 36.541213527 0.802831599894
4547 1 29.6428005074 38.8354918772 1.24421054626
5214 2 34.4038157966 35.0073213634 2.5211553998
4543 1 32.1267818604 35.0600268067 2.56759895256
4550 1 33.6277961763 36.6575959367 0.772110821505
4568 1 32.9264856852 37.3548883063 3.01199840631
5233 1 35.2962536672 37.3886023235 2.9967429896
5217 2 39.1682084829 35.3411688772 1.5995398864
5215 1 36.8135513262 35.5752417714 2.28069552504
5213 2 35.8856873866 36.8820559493 0.517524334591
5240 2 37.5184761624 37.7171680579 3.24408901425
5234 2 38.9337179867 38.6770296938 0.627335312031
514 2 3.03014820288 40.056072984 2.36855979556
517 1 1.68226078947 42.1754234205 2.31979316301
519 1 3.449675755 40.7859881362 0.368410820802
509 1 1.34216059863 39.5385088726 3.61463384056
515 1 0.975141674588 40.5408921425 0.744606561107
518 1 4.24495779364 42.0906881587 2.36521054511
1177 1 5.94804411299 40.6199130242 0.593535864667
1185 1 5.18517525419 39.7074215277 3.0280491129
1186 1 7.56672690898 39.7935604498 2.86488520237
1189 1 6.63331055705 42.0326937364 2.44397555212
1190 1 9.05008964912 42.0151138722 2.47515427718
1191 1 8.33717008936 40.5527012484 0.660287032796
1849 1 10.705504624 40.5038586532 0.670040426528
1857 1 9.94325998023 39.7264516161 2.92285950474
1861 1 11.4227975553 42.0684957968 2.35235913045
1858 2 12.4235609599 39.7844396367 2.63384187626
1862 1 13.7835266535 42.0736454824 2.28850417451
1863 1 13.0681488213 40.5453026973 0.49946969715
2529 1 14.6871855691 39.753407984 2.66933287986
2533 1 15.4259362796 40.5687844886 0.405029709379
2034 1 16.0643918411 42.0754658805 2.08870934793
2549 1 17.0291030523 39.9875502666 2.76050021488
3202 2 18.3402018756 41.8026706594 1.7414962148
3343 1 20.3723511752 38.8510414817 0.328244611144
2548 2 20.2977060033 39.3934994181 2.7551219292
3204 1 22.4000495068 38.9584012821 1.50657171226
3225 1 23.2668468635 41.2856057944 1.46370488249
3222 1 20.7151538538 41.3992245969 1.2918854527
3203 1 22.0338661728 40.623289817 3.36065865133
3223 1 24.0571185741 39.4797612504 3.42298977516
3874 1 25.6395766817 41.1341972299 1.61421882102
3894 1 26.4478678822 39.5973213051 3.38062209502
3892 1 24.6223143044 41.8880470014 3.65918435412
3897 1 28.0548448355 41.1052893614 1.61984185355
4546 1 30.4727332542 41.1017336315 1.63093638576
4566 1 31.309438983 39.5858881856 3.42345323983
3895 1 28.8729412266 39.5871549836 3.418193414
4548 1 32.069160284 38.8479041572 1.20849039911
5219 1 34.4337686051 38.9082441784 1.21098798264
4569 1 32.8758627371 41.1327639811 1.65487363633
4567 1 33.7463569668 39.6746607199 3.40204772708
5218 2 35.3575154472 41.1971316234 1.83736657757
5220 1 36.7792414419 38.8653862331 1.18169362217
505 2 39.2835117635 41.0849028121 3.00552549567
5238 1 37.7368511998 41.0300387999 1.42020997173
5232 1 36.1550677876 39.6882493335 3.40467255709
22 1 1.54659615686 3.22833533382 4.14607396737
18 1 2.57510227838 0.927125917341 3.96418136304
42 1 3.20449815609 2.60023451444 5.97536137401
17 1 0.193506721843 0.800023639024 3.85051747821
35 2 1.32625820687 1.29033087677 5.87833651681
36 1 3.94993857074 0.348190101151 6.36635759876
23 1 4.0545175092 3.18366501514 3.76234950455
694 1 6.5232489338 3.16461996768 3.76914872326
689 1 4.9125053699 0.892769415504 4.20373953218
688 1 5.63500369495 2.4225158498 5.95494555392
690 1 7.34227400814 0.851199379215 4.21985459743
707 1 6.4200040381 0.128776685437 6.42937321187
1366 1 11.3790940927 3.16459454002 3.71489481375
695 1 8.94962577034 3.16362630813 3.73059469945
714 1 8.06281952313 2.46401452647 5.92017124532
1360 1 10.4961363352 2.41774584597 5.90705317342
1361 1 9.7543522866 0.893212942198 4.16004734913
708 2 8.85632320058 0.300122957022 6.44326698339
1379 1 11.3408404893 0.143744283247 6.32205322873
2033 1 14.6567454239 0.892288708604 4.05705298511
1362 1 12.1843210811 0.874348703739 4.10512017493
1386 1 12.8768593311 2.43214065968 5.87564316256
2036 2 15.1444375695 2.5129340806 5.81024026975
1380 1 13.7727922923 0.194074064986 6.26695255152
2051 1 16.2242586603 0.205139299077 6.2638087602
2694 1 18.4982310782 2.38845337954 3.9878132467
2058 1 17.2342116909 0.270143515472 3.8558517863
2038 1 17.5287763094 2.2789883101 6.03733560101
2704 1 18.9488306824 0.260348763923 5.48063409432
2692 1 19.9562681232 2.31137506262 6.46684621754
2182 1 20.915232495 1.76961108568 4.33329935382
2707 1 22.3222318892 2.58144516372 6.44936950702
2715 1 23.3092595346 1.65523166316 4.4226335057
3364 1 25.5935664339 1.46753579719 4.34524092769
3378 2 24.7366269193 2.79948083486 6.3944955375
3379 1 27.1408744699 2.19761858903 6.51019538706
3385 1 26.3967538602 3.80645167754 4.72317618097
3386 1 28.7738675987 3.75066996884 4.74033401627
3387 1 27.9602044942 1.44648560531 4.31309522611
4036 1 30.3440643924 1.41493199453 4.29589362328
4050 1 29.6119911293 2.2152016847 6.50161849574
4057 1 31.1122604078 3.73590802599 4.73850704948
4051 1 32.1538726776 2.19695012733 6.47078870581
4059 1 32.7076978847 1.34862083331 4.162193162
4722 2 34.8489491392 1.97998008151 6.85509465362
4058 2 33.2883570354 3.52135748924 4.4857099817
4708 1 35.1042116497 1.66213053421 4.31188120709
4053 1 33.7403868369 0.00737789841416 6.06601874862
4725 1 37.5185477939 1.52982454845 4.06348710834
4728 1 36.6268502859 3.04966482082 5.79197778867
6 1 38.9993986387 2.77399557906 5.65594332512
4724 1 36.1764628187 0.181085249806 5.87754741376
4747 1 38.5738435573 0.286203631614 5.94093256887
10 1 1.60125736166 7.09193875547 4.94760425545
21 1 2.48361231103 4.90762157886 5.50627821915
47 1 3.19324212205 6.32854792163 7.32569260544
4751 1 0.716375385 6.49621369049 7.11741834615
4730 1 0.10041512057 5.0719481863 5.38356470028
29 1 4.05877430155 7.02870584217 5.06426002285
692 2 4.88963165785 4.73501216239 5.51376761304
693 1 7.30204937237 4.72335242042 5.49119702102
700 1 6.50743261135 7.00398563652 5.05545661671
691 1 5.6662473233 6.24975644215 7.2639206252
701 1 8.9480747966 6.99703011256 5.03564099404
719 1 8.11171360872 6.23487628525 7.23588725566
1363 1 10.5572513297 6.22061857178 7.22131417987
1364 1 9.71953620406 4.70767081371 5.47018146744
1372 1 11.3856071076 6.99696167039 5.02132236252
1365 1 12.1366474551 4.72791607316 5.45583329516
2035 1 14.5665686671 4.71536761517 5.42914159211
1373 1 13.8160560966 6.9567726056 5.0146445729
1391 1 12.9871925291 6.21983293774 7.21915723556
2062 1 15.4020191184 6.15824767882 7.24132571982
2039 1 16.9725728911 4.53199827212 5.38745603019
2027 1 16.2640311687 6.90125330732 5.06120002615
2045 1 18.7659740979 6.93591583401 4.75143823569
2040 1 19.265137744 4.2921216362 5.0933950029
2060 2 19.3820346542 7.29694861031 7.02338714273
2063 1 17.6418136245 5.99160567562 6.98909434252
2713 1 21.5792710092 4.03969671651 4.58705601706
2712 2 22.5689890667 6.25666717709 5.00473847789
2736 1 23.1907292193 4.78482909741 6.82575659061
2705 2 20.7787557427 4.45793309723 6.77967488851
2734 1 21.6311707749 6.94978610396 7.25259783479
2714 1 23.9866786255 3.99795424211 4.62492721719
3377 1 25.6645155684 4.7403100373 6.90223389822