ITEM: TIMESTEP
20000
ITEM: NUMBER OF ATOMS
5376
ITEM: BOX BOUNDS pp pp pp
0.0 39.5600404449
0.0 42.7297273569
0.0 37.0050293879
ITEM: ATOMS id type x y z
2 1 1.06891967179 1.99420712208 1.73048008597
24 2 3.54081934212 1.71826624641 1.95578585386
4 1 2.538923036 0.524957836273 0.189110977883
674 1 5.87188060227 1.69639480427 1.90698587885
676 1 7.47239616171 0.123830949317 0.135056647714
675 1 5.04089811496 0.168488882936 0.0983714308185
694 1 6.60569651239 3.22856331711 3.69856806327
696 1 8.27008159257 1.66456792388 1.914512454
1346 1 10.6947586715 1.68163972511 1.90861718398
1347 1 9.90509355251 0.142365991392 0.164881492993
1366 1 11.4907377862 3.18719659642 3.66867112813
695 1 9.05158954256 3.19482041548 3.68480482497
1368 1 13.1322500677 1.64623314241 1.87637864213
1348 1 12.3213406514 0.130073886986 0.137313582363
2018 1 15.5833181821 1.60501036617 1.83904114557
2019 1 14.7430847599 0.103476515233 0.113428718708
1367 1 13.9322645628 3.13983427945 3.64138520504
2683 1 18.1065331739 1.52548178667 1.72006599617
2020 1 17.1969608584 3.78209395709 1.4939570752
2840 1 19.2763555375 3.27210491975 0.379867483628
2023 1 16.3870006509 2.94305188138 3.67114296716
2534 1 19.789994312 0.378144215213 3.12244555764
2181 1 19.8890800033 3.46530953451 2.72905840235
2695 1 22.4189585747 3.15199746391 2.70845867346
2696 1 21.001219474 1.74282924414 1.54170598704
2703 1 23.1240920424 2.50775041058 0.38395399018
2697 1 23.7719833866 0.795609763513 2.10419249274
3361 1 25.5412540583 2.28821298752 0.353415459099
3366 1 24.8241233491 3.02507376503 2.56930776313
3367 1 27.2505083855 3.00854361585 2.56960253128
3368 1 26.3022207831 0.744709810648 2.13866122488
3369 1 28.7782968602 0.711523094441 2.11250104061
3375 1 27.9709855707 2.24966226405 0.347430512913
4033 1 30.3860254373 2.21425828012 0.325812842194
4038 1 29.6879275576 2.99885483066 2.56566400168
4040 1 31.2165753349 0.682976356799 2.10778425495
4039 1 32.0915731333 2.95332047675 2.48500478424
4041 1 33.6428459131 0.700344166293 1.9951076258
4047 1 32.7839265491 2.20281957431 0.288424407572
4710 1 34.658810857 3.04887700267 2.44176328733
4705 1 35.1666159332 2.2562889684 0.316778145971
5 1 39.2122133245 3.50743707765 3.13335785304
4711 1 37.2548048615 2.67538110985 1.53419291336
4712 1 35.9941598464 0.516872752156 2.01853381276
524 1 38.5176350542 0.591044003318 2.06198007684
4729 2 36.6489554369 3.70361623243 3.5329683023
5241 2 38.8540765608 1.92062598153 0.115116709711
165 1 2.22979497305 4.07467791352 1.83984599319
7 1 3.36192857663 5.54224688775 3.30644190136
11 2 2.13343411095 6.39018316498 1.19235042162
20 1 0.576818549606 5.79260662401 2.96765245659
678 1 4.98708339307 3.9466305859 1.5421719482
679 1 7.44783390926 3.94692080732 1.49603244106
30 1 5.81396864454 5.50148071737 3.25758820272
12 1 4.33875123279 6.26165583077 1.1488106365
683 1 6.71920238169 6.24832915515 1.09746698048
682 1 7.53126820242 7.76805980749 2.86671523131
1350 1 9.89650486983 3.95084627177 1.47603159475
684 1 9.1359490156 6.24114513949 1.06908248207
702 1 8.26875503777 5.47511493801 3.25840661149
1349 1 10.7065977003 5.46385118828 3.24393653401
1355 1 11.5659342865 6.21826311958 1.0437940937
1353 1 9.9482941739 7.75947840623 2.84970286531
2022 1 14.7815496956 3.9063033635 1.43754653146
1351 1 12.3405818194 3.92908019382 1.45151989055
1374 1 13.1448705747 5.42091788038 3.21632148683
1356 1 14.0105967644 6.20956178656 1.0101242156
2021 1 15.5938648921 5.32254294984 3.26154298979
2025 1 14.7624127822 7.62143487986 2.89877637418
1354 1 12.362481723 7.72409225783 2.83399553528
2167 1 16.4002820142 6.02645577345 1.02950291407
2845 1 18.7927228525 5.62876103259 1.09749899097
2183 1 17.9983531044 4.95417094622 3.35532266053
2026 1 17.2264403653 7.36171902535 3.09307035953
2028 2 20.7274394759 6.62930659105 0.732801082133
2693 1 20.6777155058 5.70007512692 3.20234356199
2700 1 22.7130989896 6.95244762658 1.4928371735
2701 1 21.4624141062 4.42600501141 0.858365151316
2720 1 23.2713671114 5.36166557319 3.04475583678
2702 1 23.9805248101 4.6477891111 0.822108806246
3365 1 25.7305331174 5.29958702195 3.01985068241
3371 1 24.9877588371 6.84515096156 1.27394834244
3372 1 27.3709587209 6.80197692979 1.23867354779
3373 1 26.4320813858 4.54705682025 0.791123597174
3390 1 26.6338266399 7.58575832751 3.46359459986
2719 1 24.2209305242 7.6405545457 3.50439378881
3374 1 28.8777615763 4.52638506515 0.78031931372
3391 1 29.0808013364 7.5704415632 3.45062256353
3392 1 28.1593233535 5.28956966467 3.00649967705
4037 1 30.5877824117 5.29530407237 2.97508271638
4043 1 29.7938375751 6.82255483463 1.22734668379
4045 1 31.3139884872 4.48930260655 0.74732516595
4062 1 31.5575057794 7.52248615977 3.46641417198
4044 1 32.1918427093 6.79066357987 1.19792008322
4046 1 33.7835496111 4.39675190561 0.65027782265
4064 1 33.0566725031 5.21613018009 2.85661540457
4715 2 34.4596266161 6.55830945008 1.01982053701
4063 1 33.9477301897 7.31745843193 3.53726171608
4870 1 39.2245189825 4.15928537742 0.379498558944
4709 1 35.7928527005 5.81037055094 2.59808174587
9 1 39.2553214378 6.72044559514 0.769449285688
4717 1 36.2380642269 4.60268859477 0.469857063229
4736 1 37.9630612409 5.12483193171 2.02337921591
4716 1 36.9113477793 7.01980855798 0.423714714578
4734 1 37.8642231032 7.23852291205 2.89587188461
13 1 2.68736409498 7.85451085909 2.85653374291
185 2 0.212682151267 8.38706620898 2.70950226646
15 1 3.54073649277 8.54033640441 0.629916874504
172 1 2.72416350707 10.8538863493 0.213280837138
186 1 1.983778191 10.1002203516 2.41226343984
1 1 1.19908634133 8.69325948312 0.637646058795
4868 1 0.277131920177 10.8578628039 0.0159663688183
677 1 5.12225019401 7.78862531316 2.90398911334
681 1 4.36862649666 10.0346107888 2.41285199267
673 1 5.93667382943 8.53649842671 0.667258676056
685 1 6.78248529891 10.0539812144 2.43092849303
844 1 7.59481037152 10.8301800508 0.217975652863
843 1 5.15783168185 10.8449798381 0.209213262645
686 1 9.20999476006 10.0545810829 2.42086889727
687 1 8.35660060677 8.5344062375 0.656423315062
1345 1 10.7744018189 8.51448504058 0.649687270912
1357 1 11.6405655809 10.0369317408 2.41018030581
1515 1 10.041184233 10.8159455544 0.205782756897
1358 1 14.0708123785 9.9672952994 2.39788059826
1359 1 13.1813847218 8.47768636534 0.627102115841
1516 1 12.5044558779 10.7760705005 0.185037847095
2187 1 14.9590275391 10.6960680306 0.207087874825
2029 1 15.5820456228 8.33949694801 0.721411946095
2208 2 17.7566994729 7.86658684544 1.04552505446
2699 1 16.3892653657 9.74574898573 2.51184113806
2202 2 18.2114708345 10.9312293734 2.3124187495
2047 1 17.5262645431 10.4188832359 0.223789047085
2064 2 19.625440889 8.07147359061 3.56207141916
2698 1 21.1339329707 8.91418156575 1.74277776891
2721 1 23.4531527675 9.17701289642 1.81446615563
2864 2 21.8376890478 11.3480383717 2.13655371747
2859 1 22.4769075734 10.4983312343 0.108649673345
2030 1 19.9909043815 10.6463282937 0.482712352305
2716 1 20.1798407083 10.2518139276 3.51197917418
2865 1 24.1757402857 11.4602630471 2.13558183393
3370 1 25.8287252202 9.11868140906 1.7053965766
3536 1 26.5552284756 11.4043436183 2.13419132259
3393 1 28.2523745989 9.05952365184 1.68185925721
3537 1 28.9076519848 11.3713726361 2.13988574675
4042 1 30.8172411907 9.08112303674 1.70051798415
4208 2 31.117039496 11.3961056288 2.10003652776
4065 1 33.5525229863 8.83185321303 1.64683650879
4209 1 33.2983467373 11.054410703 2.30466835754
4874 1 34.3868167939 10.7845343407 0.101549763676
4726 1 35.8879342998 8.26759265378 2.36974396474
171 2 38.4657256917 11.3883519941 1.98256420669
4737 1 38.2746404321 9.01374542994 1.03680983372
4880 1 35.9967680537 10.6731978465 2.03445271373
4732 2 35.9473941317 9.17617231675 0.227537703514
192 1 3.61020935601 12.2900024251 1.96520584311
319 1 2.93298563127 14.5735003971 1.43782269386
184 1 1.92447022826 13.8986901934 3.52124355505
5027 2 0.748262698063 14.3526641381 1.31837666253
170 1 1.14342136558 12.2343921572 1.90573421969
842 1 6.01571019792 12.3307058075 1.97735932233
846 1 5.25287409898 14.617023396 1.52710289337
847 1 7.63346148587 14.6088805601 1.51164705594
864 1 8.43921995417 12.3322159714 1.98431659332
1514 1 10.886591687 12.3289194399 1.96595179512
1518 1 10.0320083271 14.6149450537 1.51489876225
1519 1 12.4228730138 14.5645648777 1.47721993098
1536 1 13.3477917083 12.2611506707 1.96358110388
2186 2 14.7478763256 14.6623919511 1.5258279411
1535 1 14.0537579991 13.8066244048 3.59026280238
2226 1 15.8478997764 12.2113694675 1.92452506101
2350 1 18.320758405 12.9738432091 1.45342316604
2196 1 19.2675680604 15.2144576216 0.741377989691
2206 1 16.9254107846 14.8688823971 1.03067200297
2207 1 16.6059226981 14.3560483766 3.34201108797
2191 2 20.1826440261 13.9623537608 2.59526632557
2862 1 20.7281872676 12.964828489 0.480036487814
2863 1 22.5403947192 13.7335153508 2.54580725588
2869 1 21.6648545648 15.2080338888 0.773622552662
2871 1 23.2106654262 12.9000457014 0.383117515704
2870 1 24.0594169188 15.1829742892 0.787559186235
3529 1 25.6638022234 12.9051441473 0.368202471034
3534 1 24.960620048 13.7179980054 2.56850543799
3541 1 26.4847654019 15.177275538 0.814309998286
3535 1 27.4215884934 13.6691537002 2.56116061716
3542 1 28.8599508725 15.1556819365 0.801907304181
3543 1 28.1047337577 12.8678560545 0.3451864343
4201 1 30.6214608075 12.8445915298 0.318955418645
4206 1 29.8860869544 13.6445137024 2.53365257235
4213 2 31.0753807563 15.0647030745 0.614652613148
4207 1 32.467429066 13.6866064123 2.51894608783
4215 1 33.0715611034 13.1761625311 0.114969064508
4226 2 34.6229063207 12.6354120749 1.61052552846
4904 1 35.1562316457 14.7797847426 2.72326711365
4214 2 33.8700090336 15.5260537928 1.02452598629
4898 1 36.8086215466 13.0427361765 2.11957644493
4878 2 36.8685314599 14.7900872531 0.659533332327
173 1 38.8708720198 13.6575762213 3.27048235135
318 1 38.5600257908 13.2501696128 0.310415269409
178 1 2.73035576922 18.2609881934 2.85714102461
198 1 3.55736397409 16.0816866897 3.28193690177
310 1 1.99204704886 16.7603862506 1.03862499058
183 1 3.59962313188 19.0780028879 0.678294279102
190 2 0.413256476124 18.0215104678 2.08942551742
180 1 4.39390106961 16.8654541083 1.09511013658
845 1 5.97814127638 16.1538476715 3.28925091227
849 1 5.07382840092 18.4212482171 2.87428065473
850 1 7.52817122582 18.3237163099 3.0371532992
851 1 6.80465470242 16.8878940026 1.08451208476
841 1 5.90474905125 19.1235375066 0.760978001963
852 1 9.21142388437 16.9083353338 1.04513946745
870 1 8.38062877366 16.0640646752 3.29587693003
1517 1 10.7911288484 16.0950898396 3.26502882756
1521 1 10.0000595883 18.3829344823 2.88793754593
855 2 8.20559324012 19.0501814359 1.10364998981
1513 1 10.6392963089 19.1383247387 0.623747373308
1523 1 11.5784293917 16.9170273699 1.0999094692
2190 1 13.9207487572 16.8864419529 1.05599488725
1522 1 12.5462389263 18.4193173099 2.87725856082
1524 1 13.0773194808 19.151935811 0.681597332532
2193 1 13.1959112393 16.0682629724 3.20803914717
1526 1 15.3092801417 18.6781832981 1.56775735414
2189 1 15.5783366841 16.6200707998 2.97267305304
2194 1 18.4263213009 15.7995317098 2.89877786743
2199 1 17.5659347786 17.2495466434 1.32736667402
2867 1 19.2818899046 18.2221397124 3.35915839436
2215 1 17.0141338727 18.369924751 3.49685035188
3007 1 20.0403720003 17.4822815737 1.2019639267
2888 1 23.3367287095 16.0046984549 2.98549891171
2868 1 22.4669065079 17.4845605539 1.21747176454
2886 1 21.6931300303 18.3223412449 3.39218591788
2861 1 20.8993895213 16.0619186966 2.97059303498
2887 1 24.1117515684 18.2524166456 3.4281492018
3533 1 25.7676022283 15.9845095209 3.01132151347
3539 1 24.9065330686 17.4648738753 1.23823011206
3540 1 27.3531234276 17.4591111477 1.25197193908
3558 1 26.5536221418 18.26232115 3.44410324408
3559 1 28.9824102184 18.2154398262 3.44001404561
3560 1 28.2062984979 15.9428103717 3.02032060079
4205 1 30.6724936581 15.8963140383 2.98365345648
4211 1 29.7893137639 17.4242319232 1.23220385869
4230 1 31.4176198104 18.1525488925 3.42032281091
4212 1 32.215968377 17.3770656038 1.25207534247
4232 1 33.1761269701 16.0830575756 3.20104069966
4883 1 34.6526469187 17.552974062 1.17928459872
4231 1 33.8333836187 18.449191912 3.48298752244
321 2 35.7284225789 17.195584804 3.06012158009
4886 1 37.3601993617 15.6495650014 3.0963091069
4885 1 38.9178507887 16.040354727 1.3655529833
4884 1 37.5757971764 18.1158781229 1.53281301231
179 1 1.47219036186 19.6864419811 1.07736801491
181 1 1.33481293799 21.9757026948 2.16092340525
360 1 3.43919328225 23.0100658775 1.95974912767
340 2 2.75567204607 21.4351295702 0.181767269587
182 1 3.94977355745 20.6488485923 2.44289473548
4905 1 0.231716987473 21.6952909542 0.122722801607
176 1 1.32025201964 19.9604444719 3.58678677104
853 1 6.612695634 20.6519534273 2.45966613036
1010 1 5.85277547112 22.9000091494 1.98697853126
1012 1 7.55043290521 21.3301955225 0.188935261828
1011 1 5.08396905298 21.3880313844 0.277106053777
854 1 9.0932125073 20.679295027 2.46744632928
1032 1 8.28013989244 22.9077131335 1.97790082454
1683 1 9.99681396855 21.5013984513 0.264917306037
1682 1 10.7525765422 22.9789507181 1.99918570994
1525 1 11.4752169369 20.6699609947 2.42192311759
1684 1 12.3642637257 21.4415432873 0.243354456943
2369 1 13.7895131222 20.7406399006 2.42638035197
1704 1 13.2067939171 23.0425232757 1.94673837989
1527 1 14.8513627324 21.2892676223 0.319000874117
2197 2 15.9612391874 20.4785911148 2.67634492431
3026 1 18.1953301458 19.6748772873 1.64639988069
2376 1 19.2525687776 22.014419065 2.21476543717
2356 2 17.4148978319 21.8579760187 0.769628382631
2866 1 20.7320693553 19.8078299011 1.63911969356
2889 1 23.2429531657 19.7773044128 1.68083668286
3032 1 21.631965982 22.0537237751 2.12140996396
3033 1 24.0696477151 22.0490854787 2.13065191919
3538 1 25.7244569778 19.7544706878 1.64258678968
3704 1 26.4988938207 22.0355666432 2.18021418948
4210 1 30.6201076925 19.730679687 1.66500488474
3561 1 28.1731496935 19.7547822368 1.70026003452
3705 1 28.9863913157 22.0399427939 2.13509283428
4376 1 31.4961295941 22.0386860435 2.12270730426
5037 1 35.5191154519 19.6559868526 1.78247681813
4233 1 33.0599273978 19.6727427456 1.55683481208
4377 2 33.8124537214 22.9636571556 2.751459118
5046 1 35.6481173024 22.5052700688 1.63960803907
4882 1 37.0010535681 21.3228020248 3.17276290308
177 1 38.8081512053 20.1657431284 2.14699056741
5048 1 37.0700028271 20.6021263184 0.363445554624
4901 1 38.1307552034 22.4813635117 1.53851890274
343 1 2.54616266516 25.1844822745 1.482883897
366 1 3.2830086656 26.6431888084 3.26534597747
5066 2 0.648158287302 26.2410198555 2.75410050202
353 1 0.190736837671 24.1578702721 1.96625019028
1013 1 5.79874178196 26.699752173 3.26474390636
1014 1 5.01369700296 25.1904763704 1.500930927
1015 1 7.43429564129 25.2023935142 1.51565831895
359 2 4.28261236673 24.3698980707 3.65213303621
1038 1 8.27479238436 26.7348602615 3.25092362219
1685 1 10.7121737154 26.7685533451 3.27340276053
1686 1 9.80482711223 25.2378907502 1.52014661172
1687 2 12.0222199898 25.2444587847 1.58608408528
2358 1 14.3273613789 25.3870504132 1.25739885588
1710 1 13.1665228254 26.7976168649 3.2684749273
2354 2 15.4419440882 23.9609390301 2.50602668353
2357 1 15.4931194266 26.3333815978 3.18039578604
3035 1 16.7638259667 25.8380900554 1.04787560737
2505 1 19.1546416115 25.7303848191 0.760002773163
3046 1 18.1971710422 26.1505162878 2.96901704719
2359 1 18.567256262 23.5944682824 0.171491342583
2374 1 17.6020586656 23.8418463952 2.33634674088
2517 1 16.0155929026 23.7510871574 0.171934154323
3030 1 19.9722383667 24.2955561129 2.53037721973
3039 1 23.2881131199 23.5623838666 0.352761882079
2364 1 20.8804818046 23.5485918765 0.350306510577
3031 1 22.4020536515 24.369785028 2.52115414518
3056 1 23.135259984 26.6494912509 3.05637760629
3029 1 20.6952913612 26.5402784084 3.04887033172
3037 1 21.5317984045 25.9188825585 0.814406095564
3038 1 23.9836528503 25.8688834376 0.872186891527
3697 1 25.7023251192 23.5594058658 0.395410692518
3701 1 25.5907073975 26.6156975455 3.04090815863
3702 1 24.8406792035 24.2989660445 2.62357839168
3703 1 27.2736355617 24.3091812401 2.59663469986
3709 1 26.4159111919 25.8635772214 0.844592563129
4369 1 30.6465334058 23.5643922536 0.363079092152
3710 1 28.8404421166 25.8705618892 0.856103655799
3711 1 28.1629285524 23.570304886 0.372846886257
3728 1 28.0324731051 26.6208612763 3.03689009407
4373 1 30.4754760411 26.6299774347 3.07695594359
4374 1 29.7408955821 24.3161734043 2.56778878449
4381 1 31.2806207129 25.9287380304 0.932581732027
4383 1 33.1303184923 23.583104211 0.418222332185
4375 1 32.1415371524 24.3817644886 2.60808472042
4382 1 33.7011112828 26.2114057605 0.879392577498
4400 1 32.9192470068 26.5335676639 3.07001528007
5045 1 35.0889431358 24.8598556209 2.47045639044
5087 1 35.3904382843 27.0584384797 3.18615568209
5055 1 37.1681482499 24.6172674493 1.25380250443
5041 1 38.9008306555 26.2238663965 0.569496436429
356 1 37.7548225936 26.2478034938 3.03126888397
5049 1 37.4848012473 23.7972599178 3.44785514277
5070 1 36.5660051996 27.0616303115 1.04374788794
347 1 1.79639739259 27.4376238877 0.990246889812
337 2 1.04116896848 29.7420678377 0.756272907585
346 1 2.80314594223 29.085849492 2.62619892734
351 1 3.49470364989 29.7568090829 0.541532487336
348 1 4.21156749245 27.4535671806 1.11470340932
1009 1 5.91173906502 29.7858875689 0.566941667801
1017 1 5.18825823675 28.991587409 2.71369293775
1018 1 7.56514265008 29.038073686 2.79475166416
1019 1 6.68556404497 27.4940788057 1.06965231683
1020 1 9.13459684461 27.5488501716 1.0509743408
1023 1 8.3384420732 29.8235878693 0.583718147209
1681 1 10.770478626 29.8002570777 0.59046462508
1689 1 9.98367900208 29.0580733934 2.80719977719
1691 1 11.6546789528 27.531113047 1.07527951549
1690 1 12.4271372324 29.0576810923 2.81225393645
1692 1 14.4412390106 27.7223307425 0.964117916247
1695 1 13.2048343576 29.8188336857 0.58787109113
2361 1 14.8241796241 29.0730815369 2.99948930966
2353 1 15.6020160947 29.796790907 0.481955959722
2366 1 16.7972800453 28.0809705524 2.09736535056
2362 2 18.8660268733 28.1472567106 3.49410281089
3198 2 17.7860750905 29.6364122076 0.930947523987
2381 1 19.6622785555 28.0347339766 1.21469122697
2365 1 16.291245998 31.0759922745 2.44821859692
3057 1 23.1173258078 30.5482418284 1.74489318514
3034 2 20.8227983381 30.0085054847 1.86420098066
3054 1 21.3994557497 28.8308596439 3.64253271637
3036 1 22.2391070233 28.1885085577 1.33891661184
3055 1 23.9437757484 28.9227573103 3.50261750722
3706 1 25.5668318238 30.4805550666 1.69435499032
3707 1 24.7165503874 28.1891636747 1.30110513949
3708 1 27.1893203969 28.1668226992 1.27296227647
3726 1 26.3681098936 28.9364333517 3.46463095727
3729 1 28.040078095 30.4636779749 1.68509574169
4378 1 30.5212240164 30.4889190093 1.68203236003
4379 1 29.6492042952 28.1687441637 1.27254316892
3727 1 28.7810056319 28.9342219378 3.46254301759
4398 1 31.1233855715 28.9773947147 3.46930287934
4380 1 32.0884041642 28.2461426127 1.27073625477
4401 1 33.0951238252 30.5141805538 1.72993550236
5051 1 34.571317294 28.4637733172 1.31658470587
4399 1 33.318009519 28.6876801655 3.38996720147
5064 1 39.1208003022 28.22378731 1.78591545469
5050 1 35.7165151206 30.6555656457 1.44190973976
5062 2 39.0223942078 30.2042674207 3.60758676107
5206 1 37.1071073302 28.7410906935 2.81166150264
5202 1 37.9597476178 29.749082016 0.402777217309
349 1 1.66492696179 31.2210300366 2.46278909542
528 1 2.97545584516 33.2023261581 1.87455988049
520 1 0.463890890227 33.2882049269 1.77087364335
508 1 2.39145920977 31.9749974854 0.146146734135
5222 2 1.83453074564 34.3924405703 3.38984253762
527 1 3.96841864912 34.783030818 3.05931968945
350 1 4.19318786522 31.2342264467 2.37975772095
1021 1 6.68897332942 31.3340536617 2.30563161461
1178 1 5.7779019631 33.5981158673 1.88186303188
1179 1 4.98407463571 32.031828082 0.207545800439
1180 1 7.48007627662 32.1145219491 0.144519114228
670 1 4.14230451666 34.3619159963 0.117748157269
1022 1 9.12361110577 31.3498765015 2.35561065383
1200 1 8.24810299063 33.6531466702 1.91263326928
1693 1 11.5486734263 31.338040941 2.36111503818
1850 1 10.685438638 33.6396370995 1.9018336802
1851 1 9.92158120125 32.1032266825 0.142032575869
1694 1 13.9703352755 31.3049307157 2.41763744282
1872 1 13.092193215 33.5739384173 1.97689111198
1852 1 12.3516595291 32.1070991819 0.139324927857
2523 1 14.7950084229 32.0121716869 0.206129899133
2522 1 15.5025925372 33.5123231409 1.97369385672
2688 1 17.7452542232 33.5139665076 2.29615481997
2367 2 19.2284566288 32.4991686999 1.11864441796
2524 1 17.1678438059 31.8212487894 0.0827922456259
3200 2 22.1348325198 32.9443474909 1.70185201995
3207 1 23.142262307 34.4044968206 0.290543738368
3194 1 20.7100516557 34.174332433 0.321295102746
3201 1 24.2567940849 32.8680490392 2.0277679433
3865 1 25.5575742592 34.2980476272 0.35416319011
3872 1 26.5180404617 32.7566418316 2.1080329753
3873 1 28.8892514007 32.7581388151 2.08155664376
3879 1 27.9927896729 34.2969212459 0.31402489763
4537 1 30.4154989116 34.2983873991 0.28681929117
4544 1 31.2906335642 32.7588975913 2.08340553035
4545 1 33.6539277716 32.8885190893 1.83654576747
4551 1 32.8281691994 34.383490913 0.22201785943
5209 1 35.2704049236 34.5415518259 0.188775500418
5068 2 34.7679712095 31.8602667892 3.41571469102
5216 1 36.0454940423 33.0836418848 1.73005685194
5362 1 37.8350291409 33.9592238085 0.251289623866
5052 2 37.8973552573 31.9555187833 1.35249913212
521 1 37.9859067697 33.8849021151 3.09278996289
379 1 37.2081506983 31.6371650223 3.65363786133
511 1 2.11031890974 35.7611461866 1.47663108399
534 1 3.38703779215 37.7667720282 2.93737683689
510 1 1.98316441507 38.3144789854 1.04656272483
506 2 1.13364770441 37.4818824879 3.23580184334
672 1 3.76872650685 36.7892167205 0.0374221933726
1181 1 6.0180249341 37.9062436854 3.21179413723
1182 1 5.1572732126 36.1601697146 1.69922997755
1183 1 7.51354229485 36.0049250189 1.56154374995
1187 1 6.83655700769 38.3875156356 1.10618393465
516 1 4.46354668806 38.6903708041 1.09982532561
1198 1 6.56849465676 35.0896868405 3.64172099544
1188 1 9.19609053199 38.2789254992 1.16536169436
1206 1 8.29791490058 37.5252875234 3.39503586749
1853 2 10.6431645591 37.3040372002 3.22692999452
1854 1 9.92877597346 35.9567116108 1.44998544154
1859 1 11.5797037812 38.3505953209 1.19308265178
1199 1 9.01146246935 35.1969225181 3.65502620997
1870 1 11.4455242939 35.1428700464 3.68533975989
1855 1 12.3194329725 35.9359510657 1.51065931099
1860 1 14.0518788834 38.170025805 0.69170703558
1878 1 12.9941054632 37.5546364553 3.15378475877
2526 1 14.7520898193 35.8254042304 1.48695696054
1871 1 13.8502885488 35.1863985125 3.66715903159
2525 1 15.2965529478 37.4259964826 3.10797309786
2527 1 17.1683658073 35.7745006205 1.63438157584
2531 1 16.5201584806 38.120419544 1.11715880111
2682 1 18.7190705103 37.8571393002 1.59985889057
2530 2 17.5116665103 37.2612504437 3.43033555671
2550 2 19.6980783431 35.5828989364 1.86560919225
3199 1 22.1606626373 35.0801763107 2.64335398707
3205 1 21.3836649635 36.5906262789 0.773631703038
3224 1 23.1185820707 37.2680713672 3.11522538285
3197 1 20.7160393017 37.2779044743 3.38807965977
3204 1 22.2607247525 38.8073557271 1.4658431265
3871 1 27.208234201 35.070742449 2.51341701678
3870 1 24.7515428032 35.1379956329 2.57852739841
3206 1 23.8124757398 36.6287077672 0.812495011167
3869 1 25.5813791816 37.3572439575 2.98335612055
3877 1 26.316713117 36.5932486929 0.756660463641
4542 1 29.6450377234 35.0635366111 2.49055241183
3878 1 28.7743433916 36.5872667431 0.718847365824
3896 1 28.0444579108 37.3364917277 2.93531961897
4541 1 30.5169418957 37.3153803458 2.94160157962
4549 1 31.206647812 36.562996594 0.739140516433
5214 2 34.3108946512 35.1083820331 2.4274090497
4543 1 32.0534227796 35.0646992343 2.50030317776
4550 1 33.6047603667 36.6595256887 0.710532178308
4568 1 33.0147194564 37.3176398672 2.96687068494
4548 1 32.0282093295 38.8313186634 1.1887767628
5233 1 35.6287596603 37.4581125041 2.9117318089
5217 2 39.0943766667 35.4020393478 1.40467076241
5215 1 36.7274695352 35.4999066501 2.07511234979
5213 2 35.943366798 36.9353523276 0.493405335667
5240 1 38.4265003581 36.6924501285 3.44368712881
513 2 39.0213772224 38.4705926271 0.461692437397
514 2 2.98937620334 40.1579837716 2.28313733398
517 1 1.77814565656 42.3719025907 2.30789344432
519 1 3.50709243784 40.8896284204 0.341511465076
509 1 1.18798296432 39.7258422815 3.4049158136
515 1 1.08239339809 40.4225810457 0.527350442555
3 1 0.124840206209 42.5167469603 0.00792152288131
518 1 4.25249574118 42.2721150636 2.29815032393
1177 1 6.00423149225 40.7088266366 0.568124653377
1185 1 5.17474665042 40.0815857256 2.84029015279
1186 1 7.56263033859 39.8886484269 2.89380847201
1189 1 6.65216580968 42.1467456564 2.40228057203
1190 1 9.06172158361 42.113335444 2.3947512996
1191 1 8.3500579472 40.5766873621 0.643017212195
1849 1 10.6953135892 40.5774672099 0.64958037112
1857 1 9.92384443003 39.8046496799 2.87569909611
1861 1 11.437948759 42.1569521988 2.35371800677
1858 2 12.2698633046 40.0131761842 2.89300890629
1862 1 13.818963048 42.0646956444 2.29147781916
1863 1 13.0155554197 40.5444858552 0.587503425782
2529 1 14.6550008941 39.7188992774 2.65073418052
2533 1 15.3401972069 40.4727682748 0.465139673693
2690 1 19.6426412152 42.5298726075 0.141850140603
2034 1 16.1239459557 41.9702398702 2.11311277703
2549 1 17.1560355828 39.7830415809 2.70881733551
3202 2 18.3083986461 41.8152244121 1.89406983689
2535 1 17.7594396544 40.215882529 0.0691844510532
2170 1 17.0871975553 42.713104239 0.016464843495
3343 1 20.1913419088 38.8555549871 0.151675588002
2548 2 19.9862877096 39.3757984641 2.50856279997
3225 1 23.2553661516 41.0340218125 1.73206209453
3222 2 21.4747805737 42.2797780083 1.67073580518
3876 1 27.1559662937 38.8599824459 1.17313659278
3875 1 24.6964508846 38.874767111 1.24287079592
3223 1 23.9695528854 39.6005860243 3.48828277862
3874 1 25.5684752263 41.1886908306 1.69190354438
3894 1 26.4244005881 39.6168060538 3.3856215309
4547 1 29.5873306309 38.8495734772 1.20524901092
3897 1 27.9890955489 41.144581416 1.63719001316
4546 1 30.4134592372 41.1191815146 1.64202111846
4566 1 31.3202993261 39.5768554554 3.39189070959
3895 1 28.8670346647 39.6042924182 3.38750595792
5219 1 34.4336119178 38.8749953919 1.13483116631
4569 1 32.816506291 41.1334381968 1.61060126751
4567 1 33.7755630683 39.6315886479 3.35689543948
5218 2 35.1451748909 41.0505051582 1.47016077646
5234 1 38.4124478254 39.0159110631 2.8294362167
5220 1 36.8141834121 38.9736922649 0.967438876484
505 2 39.4322541196 41.2623931179 2.31602041598
5238 1 37.6889673551 41.1596220153 0.910515739949
5232 1 36.1890503252 39.8611326632 3.20871767202
17 2 0.392148630569 1.29425320463 3.92520757487
22 1 1.68119182993 3.37202826245 4.31422394689
18 1 2.63178436344 0.964611715886 4.15358402608
42 1 3.39104332715 2.67382004155 5.94019777183
35 1 1.31395217509 1.35174252152 6.19308440506
23 1 4.10202286245 3.2620496268 3.71019044468
36 1 4.18274649557 0.433852147085 6.3080442363
689 1 5.01576737202 1.00723044004 4.11211510313
688 1 5.81003557254 2.48561254554 5.90258704266
690 1 7.43273181451 0.969859400692 4.13202965926
707 1 6.58863013744 0.236403596805 6.33891938133
714 1 8.23833594994 2.46580212493 5.88909558776
1360 1 10.6552338916 2.42812051008 5.88163154676
1361 1 9.86225253092 0.928193399421 4.11154108707
708 2 9.0444877042 0.202421948097 6.33915041794
1379 1 11.4760527578 0.160852180103 6.32374783463
2033 1 14.7096185415 0.836952659119 4.01024054153
1362 1 12.2783447858 0.923786693335 4.10500986735
1386 1 13.0558454461 2.41621810071 5.87352253569
2036 1 15.3752714557 2.31755863344 5.75351249928
1380 1 13.879966912 0.197448215927 6.29053065354
2694 1 18.623306616 2.25845823924 4.19061208175
2058 1 17.1607574419 0.39029957813 3.96715000992
2038 1 17.56071669 2.16377201329 6.31566336152
2704 1 18.8818260622 0.246812721451 5.63226018398
2051 2 16.2789595284 0.0601715158171 6.31196440662
2692 1 19.9539104805 2.15787249573 6.6588927318
2182 1 21.0082932846 1.58851696183 4.59641577617
2707 1 22.4127453818 2.34650651507 6.53457933561
2715 1 23.3535980033 1.63634858382 4.42712943024
2056 1 21.1349188098 0.0820643356232 7.12335978415
3364 1 25.6641391532 1.47557971531 4.39041794607
3378 2 24.795489436 2.6290706534 6.4145856775
3379 1 27.2218637532 2.15843747297 6.55168609532
3385 1 26.5045526743 3.77965939848 4.7842066453
2709 1 24.0526465442 0.120254991041 6.30107512948
3386 1 28.8952983141 3.7457715553 4.78008917536
3387 1 28.039163416 1.46043354625 4.34261161198
4036 1 30.4331798477 1.42302307118 4.32681985571
4050 1 29.6698847952 2.17028084487 6.53930504974
4057 1 31.2566856337 3.74481807188 4.78519308609
4051 1 32.1410855499 2.14856959378 6.4838105363
4059 1 32.8217243298 1.33812049356 4.21620198772
4722 2 34.6090211886 1.95536640572 6.64270798661
4058 2 33.4133315735 3.53685874585 4.36519162801
4708 1 35.1928982562 1.56185498411 4.24369915144
4725 1 37.5651484001 1.70239490929 3.88030255846
4728 1 36.749091005 2.88527810011 5.83134713501
6 1 39.1684597334 2.87332093377 5.62237472371
4724 1 36.1605328355 0.162726299413 6.00900822225
4747 1 38.4553664802 0.331462030621 5.56559234569
10 2 1.89490900041 7.02567666014 4.82987445212
21 1 2.81029826311 5.01126357491 5.5832890908
4751 1 0.937738495627 6.47365466327 7.08097689999
4730 1 0.341635451158 5.15355750398 5.2727838252
29 1 4.24781262985 7.03340728474 5.08996619307
692 2 5.13995227217 4.71253813474 5.43008850052
693 1 7.47491292172 4.73184607605 5.46841196733
700 1 6.64902588446 6.99541751829 5.05426712993
691 1 5.81682024734 6.28157772301 7.25291056334
701 1 9.07860153314 6.99403139614 5.03872310033
719 1 8.24024060762 6.24788573997 7.24236073889
1363 1 10.6740636544 6.21341830992 7.23544161982
1364 1 9.87392608521 4.70800271806 5.45283620267
1372 1 11.4939066405 6.97059508931 5.02830849972
1365 1 12.2914791053 4.68770084554 5.43640606704
2035 1 14.7069641784 4.59724346337 5.46175766978
1373 1 13.8911521344 6.8572306159 5.01874209299
1391 1 13.0890812985 6.12913865891 7.23378879415
2062 1 15.5387275856 6.06778868357 7.31971614721
2039 1 17.0854237085 4.42851436278 5.53664344049