ITEM: TIMESTEP
24000
ITEM: NUMBER OF ATOMS
5376
ITEM: BOX BOUNDS pp pp pp
0.0 39.5600404449
0.0 42.7297273569
0.0 37.0050293879
ITEM: ATOMS id type x y z
2 1 0.999216082823 1.75295623874 1.94131415615
24 2 3.44638950178 1.54469114951 1.78108690552
165 1 2.3957913887 3.80718074697 1.80072193892
674 1 5.81691063184 1.61502576006 1.88697287487
676 1 7.40427932754 0.0847130131788 0.0894318809689
675 1 5.00278420458 0.0883162017504 0.11644074547
678 1 4.92414299298 3.86070614141 1.49053167119
694 1 6.58451099426 3.15484791135 3.631472542
23 1 4.10742673954 3.15199350756 3.65930898909
696 1 8.21913294444 1.60304721499 1.85987128783
1346 1 10.639862096 1.59342456503 1.8339960268
1347 1 9.81464299035 0.0701377791747 0.0677768452727
1366 1 11.4671047156 3.11734440744 3.59895009175
695 1 9.02925368701 3.13720556438 3.61882766169
1368 1 13.0673505998 1.56704430716 1.80779342162
1348 1 12.2375327397 0.0631717748296 0.0474596688998
2018 1 15.4994031567 1.55403895447 1.765318861
1367 1 13.9048843132 3.10503720368 3.58236469827
2022 1 14.6820903882 3.83166614503 1.36232670528
2019 1 14.6748388004 0.0321729760613 0.0707909364562
1351 1 12.2514962246 3.866679613 1.39043548744
2683 2 17.8646845725 1.76967599631 2.07452518508
2020 1 17.1641205729 3.74991988194 1.25481158599
2023 1 16.346600213 3.03092484267 3.55574344789
2690 1 19.5981863421 0.482759695029 0.577699076073
2170 1 17.0972435749 0.399054302994 0.127447144782
2181 1 19.8767434803 3.01831158632 2.27764390819
2695 1 22.3562601739 3.0846644716 2.43041031507
2696 1 21.5749143561 0.934921182979 1.98304414853
2703 1 23.275435403 2.30210113369 0.211992796376
2697 1 23.9676513189 0.717592252908 2.11684540198
3361 1 25.6174426189 2.16226180568 0.341965392338
3366 1 24.7985382794 3.02644485787 2.48593662485
3367 1 27.2342700446 3.00094191358 2.50878197495
3368 1 26.4032042902 0.665999494383 2.09733738525
3369 1 28.8482188372 0.686017110731 2.09296298516
3375 1 28.0252121877 2.20040394582 0.330549175987
4033 1 30.4510102445 2.19326454086 0.314560550422
4038 1 29.6819134764 3.02014904582 2.51561664245
4040 1 31.2940790646 0.685167159174 2.09171357101
4039 1 32.1100585353 2.99755318827 2.4014962814
4041 1 33.7634580345 0.681198630742 2.05282138615
4047 1 32.8955443514 2.16159662456 0.266139702088
4710 1 34.6220234807 3.0539298988 2.35124938543
4705 1 35.297389306 1.96898308039 0.315978082546
5 1 39.2437164168 3.33992241933 3.0199721224
4711 1 37.6164797546 2.42161407926 1.40240025568
4712 1 36.1711970623 0.686502417792 2.35979048549
524 1 38.6471347318 0.402666487244 2.15647255184
4729 1 36.7768148141 3.32792811237 3.30689375292
4707 1 37.109135444 0.132130621627 0.170981591464
7 1 3.29054497134 5.41340218251 3.34432892934
11 2 1.97778613129 6.15628614693 1.20962197405
20 1 0.559973383775 5.64763052876 2.95577452234
4870 1 0.366234440203 4.04218207908 0.510077236972
679 1 7.37513146063 3.8903902057 1.43486798987
30 1 5.75105826917 5.42924997726 3.20201303247
12 1 4.20945366717 6.14756523079 1.10151026751
683 1 6.60785223703 6.17871417455 1.0217204549
682 1 7.44703177949 7.7073693932 2.77655881849
677 1 5.0236635531 7.70939464629 2.82683072251
1350 1 9.81679948751 3.88395373769 1.40914708302
684 1 9.03000568213 6.17986195429 0.985120335267
702 1 8.21488677823 5.41770319239 3.19015574944
1349 1 10.6544205176 5.39997681391 3.17724292049
1355 1 11.4436912115 6.16183256692 0.965471650785
1353 1 9.86470961328 7.69194661057 2.74429258835
1374 1 13.0894717813 5.36582278874 3.1771704905
1356 1 13.8316894443 6.12824937543 0.95170892488
2021 1 15.5482861811 5.25537791418 3.20481590168
2025 1 14.6663239705 7.5537025238 2.77368038549
1354 1 12.2717847233 7.64137976079 2.70263002519
2167 1 16.1240910098 5.85935087097 1.01256249624
2845 1 19.308177163 4.79621915106 0.72562606308
2183 1 18.0163988933 5.44876643867 2.70087243381
2026 1 17.0607779213 7.50007835325 2.6513067732
2165 1 17.7846821034 6.96058709604 0.0620187764856
2028 1 19.8957875437 7.01989644025 1.22158293933
2693 1 20.761513638 5.50361890842 2.9312567062
2700 1 22.35951328 6.92025709768 1.23394288081
2701 1 21.6121647712 4.66071562247 0.744981557934
2720 1 23.1665832864 5.35129166063 2.9720976788
2718 1 21.6956747033 7.70226091274 3.48379506476
2702 1 23.9919729233 4.59552527957 0.761512998632
3365 1 25.626533418 5.32749290326 2.94725977853
3371 1 24.7816170942 6.87185215079 1.2144597992
3372 1 27.202317482 6.82374299994 1.19633004462
3373 1 26.4045204021 4.52317815911 0.753538208567
3390 1 26.5024818538 7.60712302696 3.41089806787
2719 1 24.061587137 7.62954902058 3.43416186539
3374 1 28.8332882647 4.50462680776 0.736047856245
3391 1 28.9899432638 7.59890695005 3.39207215287
3392 1 28.0847627436 5.31486789274 2.94063028293
4037 1 30.5465792635 5.39375751442 2.87247686039
4043 1 29.6156153414 6.80670360518 1.15992555615
4045 1 31.2811068531 4.48195529252 0.702999544294
4062 1 31.5477404409 7.6122795556 3.37988011406
4044 1 32.0121870786 6.7540072976 1.05882195213
4046 1 33.7314207344 4.43337625247 0.601164200059
4064 1 33.0619874039 5.37929563473 2.77912944092
4715 2 34.3977796644 6.66806655603 0.886239921385
4709 1 35.8177053064 5.66384462348 2.3084014066
9 1 39.3841308292 6.3998654004 0.278906901827
4717 2 36.1875425364 4.12490609898 0.468846590339
4736 1 38.0069140025 4.9057511108 1.64599437521
4716 1 36.9669837608 6.85202598905 0.375358687517
4734 1 38.0001445364 6.95889449528 2.64050707946
13 1 2.57617915421 7.76706602261 2.810919658
15 1 3.46116244157 8.45377210786 0.613845761029
172 1 2.69082048915 10.7710422901 0.180106203606
186 1 1.83319503768 10.0672550814 2.37718330698
1 1 1.17562243031 8.48545404139 0.694621329295
185 2 0.0924650923521 8.49117147457 2.76897083341
681 1 4.27736756782 9.98123576109 2.36712165763
673 1 5.86716444401 8.48522221663 0.612862046687
685 1 6.71065399201 10.0066163706 2.35450793624
844 1 7.54919136631 10.8027376756 0.152784789335
843 1 5.12088885405 10.8098760945 0.183728556248
686 1 9.13583176436 9.99470070591 2.3191963392
687 1 8.29691064516 8.48843100053 0.571218168844
1345 1 10.7398213868 8.47733209476 0.546166358479
1357 1 11.5566310669 9.96693041782 2.31506604239
1515 1 9.99131885872 10.7850699926 0.116891811537
1358 1 13.9430796601 9.87849169372 2.29705576483
1359 1 13.19396331 8.43453657437 0.521607431615
1516 1 12.457623458 10.7310990097 0.0940441107757
2187 1 14.9067484179 10.5889699093 0.120607299066
2029 1 15.6710776491 8.30475787407 0.741792384135
2208 1 18.4416506219 9.09584046033 1.63411116617
2699 1 16.2395302372 9.86369250425 2.41177172714
2202 2 17.9791792558 11.1851043426 2.37972555298
2047 1 17.3812691629 10.7171493358 0.154925031431
2064 2 19.4825166439 7.84222879099 3.2680674419
2698 1 20.8804308795 9.2227819629 1.68303325141
2721 1 23.2034937132 9.20102968675 1.70390251461
2864 1 21.5177263009 11.5497347858 2.19817284832
2030 1 19.793895291 10.8713806602 0.219401981942
2865 1 23.9812100168 11.4866752047 2.11640772233
3370 1 25.6030562181 9.15370273311 1.66057807733
3536 1 26.4470138186 11.4324290794 2.09714070115
3393 1 28.0039541545 9.12238051668 1.64864966856
3537 1 28.9278479233 11.4156326977 2.07018570188
4042 1 30.3630191849 9.11666666579 1.6316017388
4208 1 31.4201693953 11.4662516191 2.00097628855
4065 2 32.5471124391 9.06349864236 1.46857404378
4874 1 34.0923841094 10.8136309369 0.449586018307
4209 2 34.1130169012 11.0530218787 3.05162987128
4726 1 35.9482487614 8.16739468035 2.22825105752
171 1 38.8876930342 10.9861827783 2.20025040416
4737 1 38.0069915184 8.92221945226 1.19444210485
4880 1 36.1960382462 10.6824713853 2.16085686818
4887 2 37.6973199741 11.1315935999 0.25917327538
4732 1 35.9354902843 9.45845657207 0.032229251417
192 1 3.63583587461 12.2725357773 1.92310149554
319 1 2.94511397107 14.6194580358 1.48429092672
184 1 2.0683008732 13.7929260477 3.62213009324
5027 2 0.768985078849 14.4590521087 1.55320699319
170 1 1.24283648802 12.2750572332 1.89617290521
842 1 6.00450644261 12.3105536059 1.9144257248
846 1 5.23204144281 14.5980590284 1.45358295428
847 1 7.60545915648 14.6015039154 1.45451304407
191 1 4.41571104848 13.8813618718 3.65144022837
862 1 6.82383550321 13.7993038755 3.6813453141
864 1 8.40615774486 12.307369115 1.90277424729
1514 1 10.8300002651 12.2712451554 1.88244671445
1518 1 9.95310443264 14.6009467631 1.45925863502
863 1 9.23367420946 13.7895042652 3.68835256603
1519 1 12.2202806223 14.3268256747 1.43728613669
1536 1 13.2525851662 12.1403353977 1.90672616416
2186 2 14.4077080127 14.211754782 1.33576040951
2226 1 15.7525639492 12.262226241 1.84837320699
2350 1 18.0852639133 13.2019726791 1.32486772922
2196 1 19.5466760099 15.2011370021 0.780597403067
2207 1 16.1731178516 15.1005563523 2.61310514291
2206 2 17.3840784954 15.452540892 0.800826589985
2191 2 20.089129924 13.7397109377 2.75377307144
2862 1 20.6640829449 13.0962020626 0.43163491753
2863 1 22.4698217649 13.7340350815 2.62577509445
2869 2 21.8177757809 15.2936031833 0.92054197037
2871 1 23.1030777241 13.0429618282 0.348528461421
2870 1 24.0811050119 15.2439811761 0.7663271524
3529 1 25.5544704178 12.9698248533 0.328481510849
3534 1 24.8800574412 13.7234128744 2.55971766255
3541 1 26.4460500113 15.2192174301 0.771415004629
3535 1 27.3078048795 13.6988256203 2.53768884313
3542 1 28.7689786213 15.2106648185 0.761722997471
3543 1 27.9826516774 12.9071294658 0.314262322742
4201 1 30.3852973773 12.8909029899 0.282038837622
4206 1 29.7243425437 13.7110199758 2.51506517889
4213 2 30.9583690207 15.2169207301 0.714906326242
4207 1 32.145772171 13.9560792628 2.35875569305
4226 1 34.6640900383 13.0311603474 1.87763516093
4215 2 32.6482270742 12.6197915723 0.307140991509
4214 2 34.0868428619 15.3392652032 1.38003753515
4898 1 37.0882059466 12.955496704 1.81309873873
173 1 39.0531466407 13.743395302 3.25605178874
318 1 38.9464597724 13.1455641795 0.031024741624
5026 2 37.136055594 14.6764858958 0.0346135708909
178 2 2.87564034991 18.4346241195 2.72673266364
198 1 3.54237067397 16.1730864163 3.30571423572
310 1 1.80488791871 16.8095277752 1.21573581882
183 1 3.45270692904 19.0525280491 0.656928971637
179 1 1.15861021252 19.2783274032 0.989883263299
180 1 4.32691763185 16.8589100269 1.0930938969
845 2 6.09646708109 16.0183265791 3.15727087593
849 1 5.11440057288 18.3346359179 2.94139743568
850 1 7.5206576367 18.3038142854 2.98645286555
851 1 6.78387971165 16.8831991234 1.03452579449
841 1 5.85500635057 19.0863463413 0.760782880822
852 1 9.22416426279 16.9110103708 0.9944373698
870 1 8.46296276213 16.0597124214 3.24254894808
1517 1 10.8809014342 16.0835037148 3.18261016481
1521 1 10.0305540848 18.4026232511 2.78506265229
855 2 8.21282539592 19.0313097807 1.04266946995
1513 1 10.7390532951 19.2280494137 0.451776447471
1523 1 11.6230817817 16.9036501679 1.00387326644
2190 2 13.9480766354 17.3128739932 0.887003771838
1522 1 12.5179936834 18.4790663389 2.73443956547
2193 1 13.3004776793 15.9089578263 2.92702268404
1526 1 15.5485259255 19.0739676864 1.06821193947
2189 1 15.2661442262 17.4193413331 2.8843080096
1524 1 13.1352038622 19.3394191432 0.581250211645
2194 1 18.5160711958 15.6553672127 2.98206102877
2199 1 17.6912216218 17.4761176944 1.54190121974
2867 1 19.4604750246 18.214887284 3.32439953123
3007 1 20.2163783072 17.4396005613 1.2202322841
2888 1 23.3148788473 15.9925620428 3.0029428158
2868 1 22.5831837977 17.5052409838 1.19850683287
2886 1 21.7870355321 18.26081764 3.38105986524
2861 1 20.8858203931 16.0170509403 3.08650075538
2887 1 24.1659351811 18.2192867413 3.38417902492
3533 1 25.7285769588 15.9887466542 2.98832172609
3539 1 24.9796095851 17.4928263551 1.18245551478
3540 1 27.3907836298 17.4785410558 1.20355183389
3558 1 26.5760995236 18.2600383601 3.40768765752
3559 1 28.9788047649 18.2467434746 3.4116090334
3560 1 28.153361251 15.9731341155 3.01419353659
4205 1 30.6445947407 15.9803325083 2.97495885589
4211 1 29.8178185756 17.4774436401 1.21414205998
4230 1 31.4049510311 18.2117674288 3.38312490273
4212 1 32.3499574849 17.3498977007 1.26128059275
4232 1 33.3599241092 16.1954531259 3.25944834538
4883 1 34.9099833483 17.6687543299 1.2963657474
4231 1 33.750521796 18.5209835904 3.52835662709
190 2 39.5480219662 17.7265909899 2.54077287553
4878 1 36.2110304336 15.5978796258 1.85261217007
321 2 35.7431465497 17.5203362489 3.3697323045
4886 1 37.9088910096 16.4567917855 3.34973887043
4885 1 38.7525398625 15.8908404557 1.15883801765
4884 1 37.3345392767 18.2722880375 1.74966787217
181 1 1.32196587144 21.8697253334 2.20832442864
360 1 3.39757834413 23.0166060714 2.09504242512
340 1 2.63495692781 21.2958127898 0.250411750496
4905 1 0.11252779069 21.6246373123 0.262252889817
176 1 1.34802282786 19.8824645002 3.59103239402
182 1 4.02217635668 20.6433686192 2.48275464274
853 1 6.59986999756 20.6285409105 2.44146567381
1010 1 5.83351650595 22.9140445238 2.00809787915
1012 1 7.5293492455 21.3215605125 0.136776729836
1011 1 5.04202849491 21.3614483019 0.308582614161
854 1 9.08285268343 20.6890525269 2.38645862828
1032 1 8.26006170794 22.9205272995 1.92553681807
1683 1 9.97199231515 21.5542639532 0.198263288302
1682 1 10.7091348358 23.0230492254 1.95375023446
1525 1 11.483899279 20.7085300272 2.34973871098
1684 1 12.3748786674 21.575856004 0.207001817944
2369 1 13.8661491366 20.8347358174 2.38577995203
1704 1 13.1142888823 23.097837039 1.99999177609
1527 1 14.8225364119 21.6051611953 0.172594271978
2354 1 15.5859065811 23.1274129289 2.44502922652
2197 2 16.109123442 20.9845832613 1.97408862052
3026 1 18.328504293 19.7009831843 1.76562807603
2376 2 19.3670993689 21.9612162714 1.97983421736
2356 1 17.49979002 21.1996387097 0.0309067212799
2866 1 20.8575041349 19.7469158178 1.62238658165
2889 1 23.31825669 19.7641983346 1.64465469237
3032 1 21.7012037779 22.0056191132 2.08950634522
3033 1 24.1096080056 22.0322224443 2.10120173539
3538 1 25.7696690115 19.7640473568 1.60193393339
3704 1 26.5112101924 22.0461353153 2.13676939112
4210 1 30.6077672813 19.7573834184 1.64214694822
3561 1 28.1846678949 19.7776215113 1.65587355584
3705 1 28.9340362926 22.0660504129 2.08321345928
4376 1 31.3457228498 22.077547356 2.06076379155
4233 1 33.0420289235 19.7425896928 1.62829350716
4377 1 33.6739433276 22.0442325118 2.22723895051
5042 1 34.6852317995 21.1297185209 0.0968728423945
5037 1 35.4650665138 19.9426260629 2.1094445739
5046 1 35.7661136883 22.8401354679 1.62389668831
177 1 38.8664171951 20.1807161231 2.34955181566
4901 1 37.1504528762 20.9963494105 0.689068824738
4882 2 37.2301849046 21.6290300983 2.93589103269
343 1 2.61716423298 25.2182688677 1.65947921147
353 1 0.2731296987 24.1073690939 1.92911415838
5066 2 0.612743458928 26.2499037166 2.91095056576
366 2 3.69875288675 27.0289255033 2.83492047972
338 1 1.85864460678 23.5277559989 0.138666171657
1013 1 5.90186871277 26.7623832199 3.33967926263
1014 1 5.08366976829 25.1984950745 1.56234786352
1015 1 7.499644023 25.2159572712 1.54526447865
1038 1 8.2984578431 26.7938768829 3.28962719928
1685 1 10.7189662188 26.8193954562 3.29636227662
1686 1 9.93353045993 25.2734739253 1.49745410808
1687 1 12.3749076886 25.3293908183 1.56106826428
2358 1 14.8753012482 25.3752237269 1.67615964542
1710 1 13.1601628519 26.8146999195 3.36947944764
2357 1 15.6664457012 26.8992162786 3.37587944737
2359 1 18.4983003491 23.4551020409 0.295605295522
2505 1 19.2120249362 25.7453161289 0.809499589827
3046 1 18.2148919756 26.7784717021 3.01898232461
2374 1 17.453428158 24.7065204208 2.19151633269
2517 1 16.2269886938 23.9654054101 0.208973246689
3030 1 19.9382643628 24.2467926305 2.47720286801
3039 1 23.3077078513 23.5214356216 0.323574497981
2364 1 20.887702893 23.49269888 0.325030640352
3031 1 22.4275091234 24.2986316765 2.49859141708
3056 1 23.2155019329 26.5673398685 2.97533758642
3029 1 20.718577875 26.5553325424 2.91740229707
3037 1 21.644174259 25.7584181301 0.791798633586
3038 1 24.0771864329 25.7894409548 0.800416548593
3697 1 25.7444642378 23.5609634301 0.341242233777
3701 1 25.668345044 26.579974139 2.99987212285
3702 1 24.8846622225 24.2713348817 2.58600076512
3703 1 27.3131369763 24.3085187804 2.55625661026
3709 1 26.4951505682 25.84071482 0.803041885996
4369 1 30.6880302245 23.5346073344 0.264025719024
3710 1 28.9162976338 25.8674318172 0.818837653372
3711 1 28.2051353496 23.5740088783 0.286824539921
3728 1 28.1112386336 26.6124317887 3.01195647179
4373 1 30.566341841 26.6170333297 3.00503343316
4374 1 29.7623130617 24.3323839949 2.51881722411
4381 1 31.3306847196 25.8301584455 0.756069959761
4383 1 33.2851153215 23.557245789 0.345561970381
4375 1 32.1831973226 24.3127539443 2.55259156808
4382 2 33.5843104845 25.8708849068 0.741280839614
4400 1 33.0274126865 26.5821816896 3.0744012143
5045 1 34.5296336316 24.5123688213 2.76881721917
5087 1 35.5434720668 26.969658866 3.30792797526
5192 1 35.8520950931 25.6776081162 1.17667195666
5055 2 37.6798824428 24.4669002868 1.07516245557
5041 1 38.8632181248 26.4091694549 0.669769835521
356 1 37.8332520605 26.3326251654 2.87173025324
5049 1 37.4414724828 23.8922363201 3.23444453458
347 1 1.95559648538 27.4198002914 1.18968442674
337 2 1.46289975621 29.6485121583 0.702036041469
346 1 2.54492589632 29.4939964975 2.84123679883
351 1 3.69217346259 29.6994173159 0.516751421516
348 1 4.46910766679 27.4433700633 0.849113620918
1009 1 5.98765507366 29.7779121584 0.621549798208
1017 1 5.05998616782 29.0400750086 2.79824318475
1018 1 7.4804549994 29.076420503 2.85337176506
1019 1 6.81392552251 27.5106809 1.07240969408
1020 1 9.15978159635 27.5559064057 1.082968763
1023 1 8.35699600766 29.8442317075 0.644326943545
1681 1 10.7541119311 29.8666241146 0.651822164294
1689 1 9.91346572999 29.1089102199 2.8602309941
1691 1 11.5297080676 27.5803716405 1.08407252349
1690 1 12.3526355681 29.0988559045 2.87731806958
1692 1 13.8783119692 27.5939209003 1.16675068684
1695 1 13.171293978 29.8909972718 0.684607086197
2361 1 14.7834862295 29.1427810957 2.85790745171
2353 1 15.711466784 29.9124131463 0.646879724274
3035 2 16.0903765377 27.6303724027 1.25357676245
2362 1 19.18194609 29.0014992803 3.42357029668
3198 2 18.3255170438 30.0288896455 1.25328672966
2381 1 19.8679382386 28.0832779652 1.217995541
3057 1 23.1813669993 30.3276047868 1.61811302071
3034 1 20.7033342532 30.3242396276 1.68443098679
3054 1 21.5957142044 28.7903626706 3.36229103866
3036 1 22.3702148946 28.0504455276 1.19366477855
3055 1 24.0555635166 28.8400387511 3.39292228953
3706 1 25.6324979341 30.3811445136 1.63627210503
3707 1 24.8292920851 28.0940727058 1.20371471035
3708 1 27.2658670728 28.1326817285 1.2287172193
3726 1 26.4720658877 28.887077533 3.43119200765
3729 1 28.0570465538 30.4286310764 1.67130348022
4378 1 30.477348875 30.4625262357 1.69445316756
4379 1 29.6816208811 28.1591037254 1.25518670875
3727 1 28.8933005947 28.9095802353 3.45769264136
4398 1 31.3026224303 28.9218327754 3.48340178379
4380 1 32.0648958215 28.1566573671 1.29539060828
4401 1 32.8783725315 30.4909197254 1.75324499565
5051 1 34.426024957 28.1359407575 1.32174224766
4399 1 33.6582501348 28.8540984125 3.45879467439
5050 1 35.3123473141 30.3474436323 1.82888705696
5070 1 36.7611769708 27.9809720448 1.29218652145
5064 1 39.3218051173 28.5956542205 1.78875652446
5206 1 37.4198749184 28.8092693451 3.30006353525
5202 1 37.6329734074 30.4515173219 1.48100426753
5062 1 38.7099132676 30.6412179579 3.69667071447
349 1 0.736449356942 31.1891991708 2.15449985668
528 1 3.46118730934 33.6313571447 1.8229695692
520 1 0.963948377335 33.5474411913 1.71456945143
522 1 2.41467272478 32.4935419511 3.51829023059
508 1 2.72181389138 31.8448317085 0.418412808184
350 1 4.23284686735 31.2361403337 2.29531266312
1021 1 6.68941807296 31.3698375522 2.35878115959
1178 1 5.85789584526 33.668017118 1.88463506945
1179 1 5.13772229605 32.0499857621 0.125708953062
1180 1 7.52043922789 32.1304382241 0.180825926577
1022 1 9.10287593398 31.396120416 2.41290891547
1200 1 8.26859664568 33.675263524 1.95459918658
1693 1 11.540287962 31.3933962149 2.42250808296
1850 1 10.6996257215 33.6803494981 1.9599781547
1851 1 9.92700711501 32.1440524033 0.202530256477
1694 1 14.0106133649 31.3749561598 2.41868550438
1872 1 13.1377655017 33.6224562517 2.00960969986
1852 1 12.3612181033 32.1636625468 0.208158414801
2523 1 14.8449527993 32.0757592578 0.204688017952
2522 1 15.6108290499 33.6516722281 1.93491520472
2365 1 16.5022607013 31.3716079103 2.44312214651
2688 1 18.0548109624 33.7905303668 1.56405895191
2367 1 19.0141654522 32.0043118927 2.63262644158
2524 1 17.2434307291 31.9900567472 0.194384756247
3180 1 19.7664637343 31.9378223904 0.0343138637626
3200 1 21.5032869458 32.5127590153 2.13523767601
3207 1 23.0596361733 34.1479989023 0.344324109317
3194 1 20.6412679775 34.0680274321 0.372821999149
3199 1 22.1700903605 34.9062345879 2.53435790259
3201 1 23.9361078383 32.6398128158 2.09768831082
3865 1 25.5326202679 34.1918054999 0.350983168393
3872 1 26.3850475969 32.6861095749 2.10003032164
3870 1 24.6818305156 34.9500869913 2.53754505536
3873 1 28.8232588466 32.7424431259 2.12012511326
3879 1 27.9856833934 34.244116463 0.345788705867
4537 1 30.4223458278 34.3100482702 0.355771259779
4544 1 31.2409606303 32.7875597353 2.14926760645
4545 1 33.6352912713 32.815819172 2.15656956275
4551 1 32.8282237549 34.340228423 0.357141162622
5209 1 35.2601128672 34.3271316801 0.29086410487
5210 1 34.4057185429 32.0233310045 0.00110164567623
5216 2 36.0135434918 32.692510004 1.77095936033
5052 2 38.9455444947 32.2938640456 0.381668313557
521 1 38.2057564847 32.9497024856 2.37678881399
5362 1 37.7068036852 34.3564335032 0.174361897839
5215 1 36.6495319731 34.9339691617 2.47247199178
5222 1 1.41336748518 35.3893778213 3.10881561278
511 1 2.72102063017 35.8010328183 1.15131435362
534 1 3.26357415303 37.4647660727 3.31469629782
510 1 1.76549601425 38.1396449486 1.1668510808
506 2 0.991994543287 37.7768351899 3.41924249866
527 1 3.86076891256 35.109369797 3.57096761926
1181 1 5.7083025678 37.4585165102 3.38321753442
1182 1 5.03038399323 35.9622755814 1.54005026628
1183 1 7.45465995991 35.969786798 1.51912158005
1187 1 6.62198216005 38.2358005058 1.10622210896
516 1 4.20747188473 38.2332290908 1.1482138182
1198 1 6.53226417128 35.2200098398 3.66352518479
1188 1 9.04962619222 38.2352893609 1.06365793362
1206 1 8.20870268189 37.508665603 3.27882506643
1853 2 10.7232993217 37.4160048287 3.15088158084
1854 1 9.87249397393 35.9611396633 1.44481527572
1859 1 11.476656024 38.2499957799 1.01550578666
1199 1 9.0326129015 35.2488815079 3.65341323403
1855 1 12.2810592359 35.9309049246 1.54273106633
1860 1 13.9105214386 38.1928849536 0.7946821378
1878 1 13.1146214908 37.5324787193 3.1723654898
2526 1 14.7296635302 35.9057248975 1.4981807262
2525 1 15.5151590257 37.4751343626 3.1723089331
1871 1 13.8855884114 35.2396728756 3.6760683738
2527 1 17.1192002732 35.9853026911 1.396006928
2531 1 16.381049883 38.1522901909 1.05271801887
2682 1 19.0269110017 37.7808325422 0.918341925746
2530 1 18.0387548902 37.2829758514 3.12820059946
2550 2 19.5807510445 35.6359869414 1.76188480338
2542 1 16.3682113709 35.2973716952 3.63774093872
3205 1 21.4361606883 36.4350352577 0.720839535075
3224 1 23.0989811873 37.2105084272 2.91866102366
3197 1 20.6887378479 37.1803771255 3.19088754107
3204 1 22.0195199412 38.7739698912 1.2744781188
3206 1 23.8557516109 36.4494813661 0.77314549997
3871 1 27.1525542355 35.001535616 2.53613628262
3869 1 25.56750165 37.2513350451 2.97951296712
3877 1 26.3256606999 36.5019685533 0.783384947891
3875 1 24.6551029913 38.7477295175 1.25586101931
3876 1 27.1656916268 38.8072592245 1.21196345866
4542 1 29.5796658324 35.0773779604 2.51689291872
3878 1 28.7674536274 36.5669533536 0.751373979032
3896 1 28.0255630508 37.2981405094 2.96482614486
4541 1 30.4748543695 37.3407579666 2.95534163996
4549 1 31.1709125543 36.642552298 0.739035094772
4547 1 29.6338385808 38.8371521809 1.18224688557
5214 2 34.2943596299 35.2995845437 2.26615187824
4543 1 31.9819680662 35.1325917515 2.49810227382
4550 1 33.5828569938 36.7173503503 0.693506866298
4568 1 32.9230014548 37.3691183855 2.98659493913
5233 1 35.4090083152 37.320974703 2.95417464348
5217 2 38.868585039 35.353202422 1.81391417468
5213 1 36.0055801202 36.5744215097 0.625806090718
5220 1 36.8893012489 38.5301648179 1.54928239987
5240 1 38.1109006585 36.5731278229 3.58728972446
3 1 0.195620297185 42.4852761382 0.00915563166555
4 1 2.60946912882 42.7177057422 0.122201424039
514 1 2.52196561583 39.8328466711 2.79702570105
517 1 1.74052303463 42.194695433 2.3304889131
519 1 3.38518902972 40.4966988713 0.653387553685
515 1 0.981065608975 40.4754166807 0.810215840915
505 2 0.114651767784 41.0088817855 3.4346981988
518 1 4.20519298972 42.0613702968 2.33559628021
1177 1 5.79733389174 40.5254039834 0.601386071433
1185 1 4.98090380887 39.7854729361 2.8231008106
1186 1 7.42415696832 39.7758315301 2.80382740697
1189 1 6.62441633891 42.0656877091 2.31688544289
1190 1 9.03317885938 42.0308838365 2.30542586503
1191 1 8.21513234468 40.5147126194 0.569482912963
1849 1 10.6152404452 40.5017984805 0.541859339695
1857 1 9.84150688557 39.7487576947 2.78679635408
1861 1 11.4283848545 42.0194690506 2.2640397993
1858 1 12.2518448946 39.7554058827 2.71982395315
1862 1 13.8050988191 41.9550653369 2.19185331558
1863 1 13.0053984896 40.4802424441 0.432690065307
2529 1 14.6797934756 39.6958066432 2.7113842417
2533 2 15.3071920334 40.2927090656 0.595808290413
2034 1 16.163993702 41.9780907889 2.16288326449
2549 1 17.2224449392 39.7066581304 2.63255275702
3202 2 18.2298804717 41.5037636455 1.29673301344
2548 2 19.7303715684 39.1823103937 2.44062347559
3225 1 23.0219998711 41.0963329991 1.68990199861
3222 1 20.6057193428 41.4561877005 2.17204785108
3203 1 21.6555356588 39.6414076769 3.49644424996
3223 1 23.9760961447 39.5625631972 3.42646294415
3874 1 25.5551906289 41.0300624304 1.72614397276
3894 1 26.4185019827 39.5557330157 3.43780390613
3362 1 24.7792258871 42.4711052081 0.0789658721836
3897 1 28.0191991842 41.0978053555 1.65331788413
4546 1 30.4721102912 41.1043106031 1.63687754619
4566 1 31.288685536 39.6113413394 3.43117213241
3895 1 28.8592658161 39.5820132829 3.39517020825
4548 2 32.1388097495 38.9026483207 1.31169293028
5219 1 34.529526397 38.9238135804 1.23722391299
4569 1 32.9261303929 41.1599510463 1.64606317208
4567 1 33.7535614505 39.6753283595 3.42788123337
5218 1 35.3865415565 41.1480444345 1.85189028634
513 2 38.9358657643 38.9480444142 0.919274849692
5234 1 38.4987591541 38.9947184641 3.45031942538
5238 1 37.8750859081 40.9879231853 1.64607731626
5232 1 36.1639450294 39.613452111 3.59609282346
17 1 0.220678211021 0.793226340934 4.11988231289
22 1 1.6315748425 3.24835982425 4.30546851491
18 1 2.70643947406 0.900391924227 3.97554046695
42 1 3.50398607333 2.52856383966 5.88962395717
35 2 1.59989696842 1.3630833544 5.80517303281
36 1 4.02185123207 0.17741457238 6.28412348306
689 1 5.03942453649 0.890378068017 4.11461513586
688 1 5.85623324397 2.40124735437 5.82658762275
690 1 7.43144226458 0.870197453848 4.07929956142
707 1 6.56829197042 0.130255028856 6.2993842258
714 1 8.25976645046 2.38826135353 5.82260280132
1360 1 10.6771641287 2.35681711117 5.79548537414
1361 1 9.83934247961 0.838834678361 4.04989989016
708 1 9.05554342061 0.10865451315 6.27432794239
1379 1 11.5186635481 0.0817064184523 6.2478761017
2033 1 14.5772731117 0.810060132437 3.8559535976
1362 1 12.2356856409 0.816349543299 4.0205607126
1386 1 13.102901486 2.3028498342 5.77480599245
2036 1 15.4798962819 2.25486675784 5.67986774941
1380 1 13.9794027813 0.0653928781288 6.22642577613
2694 1 18.7654860709 2.32799424609 4.4518150455
2058 1 16.959498111 0.716534134582 4.22054833788
2038 1 17.6529164173 2.29114747281 6.64411828621
2704 1 18.9911333554 0.149374435498 6.26955022048
2051 2 16.4332578958 0.0448322657705 6.48049231096
2534 1 20.8756195511 1.19054959572 4.28795618848
2692 1 20.1469565514 2.14907884307 6.52807024705
2182 1 21.7245430228 0.146475056358 6.32810990691
2707 1 22.5290701562 2.3333142131 6.45642846248
2715 1 23.2152337151 1.55876213286 4.27216641018
2713 1 21.4826523669 3.63911786762 4.58856596577
3364 1 25.6252635654 1.49294811654 4.27805258138
3378 1 24.9007216584 2.30561529381 6.4843733778
3379 1 27.3212217374 2.27438369394 6.45473735538
3385 1 26.4425262349 3.79502926343 4.70056433748
2714 1 24.0178692481 3.81720428919 4.67820694722
3386 1 28.8302291875 3.79824435615 4.71760910283
3387 1 28.0311092618 1.47553013694 4.27438705855
4036 1 30.4083669798 1.42467269091 4.26602408603
4050 1 29.7607345535 2.28491039398 6.46723201657
4057 1 31.1018002979 3.77298185957 4.55548174789
4051 1 32.1731683932 2.32501298155 6.44422626927
4059 1 32.7862161437 1.38186279399 4.16886321425
4722 2 34.4855677615 1.88861420448 6.70697971868
4058 2 33.2644678136 3.60596914755 4.37903077143
4708 1 35.1192774866 1.81068450118 4.37506515172
4725 1 37.496061961 1.32555131774 4.31602773245
4728 1 36.4834228544 3.09241867127 6.07916137277
6 2 38.5850788744 3.05690534336 5.18680898983
4724 1 36.0853272487 0.199543567039 6.05986595399
4731 1 37.9021952292 1.54496686076 7.30420919509
10 2 1.86668004194 6.91352067492 4.79474904409
21 1 2.73721826641 4.85146041965 5.71643444499
4751 1 1.04910283974 6.28155775824 7.08877699988
4730 1 0.293394459658 4.95763874334 5.37659348345
29 1 4.22193064135 6.96399131119 5.02894123499
692 2 5.12113696819 4.63326507047 5.37118696641
693 1 7.46263045088 4.67503932746 5.40846116853
700 1 6.62734320636 6.94234254504 4.97880717763
691 1 5.85619041949 6.22597483593 7.19209143367
701 1 9.06193398086 6.9379093826 4.96063679561
719 1 8.26309575167 6.20598234544 7.17984992028
1363 1 10.7020332243 6.1846560545 7.17766781142
1364 1 9.86816167126 4.65489865871 5.39475178049
1372 1 11.4832011236 6.89702844727 4.94918785056
1365 1 12.296753304 4.6196722062 5.3933358628
2035 1 14.7314166162 4.57730062952 5.41530440899
1373 1 13.9075460633 6.83886939411 4.98025342329
1391 1 13.156665037 6.14007545755 7.18245312307
2062 1 15.6507537895 6.18585310903 7.10739500279
2039 1 17.198286433 4.48202936267 5.37037399457
2027 1 16.2876446854 6.77628924106 4.87925817758
2045 1 18.6518885003 6.68962339759 4.92628087838
2040 2 19.2828111683 4.58851719103 4.28044564724
2060 2 19.382327752 7.11389441788 7.10435130095