ITEM: TIMESTEP
16000
ITEM: NUMBER OF ATOMS
5376
ITEM: BOX BOUNDS pp pp pp
0.0 39.5600404449
0.0 42.7297273569
0.0 37.0050293879
ITEM: ATOMS id type x y z
2 1 1.24287711685 1.45848344406 1.79760932966
24 2 3.77367713847 1.59763964312 1.85805222993
4 1 2.58705822813 0.164446027836 0.117144951653
165 1 2.48747308043 3.73536061096 1.81269823213
674 1 5.98167421418 1.6791285878 1.92166401583
676 1 7.51317005154 0.185491714939 0.231593280306
675 1 5.0635119419 0.151711111766 0.122775602039
23 1 4.15926297528 3.17935533266 3.657200103
696 1 8.33564389927 1.68310816723 1.99144450658
1346 1 10.7356843521 1.69367764351 1.99452565716
1347 1 9.95783904027 0.168889848966 0.233969530179
1368 1 13.1578538494 1.66982200608 2.01770298377
1348 1 12.3907250547 0.152671886181 0.22293971896
2018 1 15.58962539 1.59254434163 2.07200063044
2019 1 14.8136048321 0.116472777908 0.253207783429
2534 2 19.3873973408 1.00983706764 3.46862825139
2683 1 17.935236855 1.44442984785 1.94890649341
2020 1 17.2404599997 3.75863444141 1.72308914266
2170 1 17.1651484688 0.0586189592243 0.213865199724
2690 1 19.6548574607 0.0317528895258 0.186056972446
2840 1 18.8587541137 2.58509163279 0.100233357318
2181 1 19.91805191 3.27974794464 2.5928638946
2695 1 22.4080078617 3.12240605385 2.66633684471
2696 1 21.0056725197 1.42475677242 1.59325061789
2703 1 23.0727170921 2.29912958392 0.347938643777
2697 1 23.9919311718 0.850271379622 2.03169167259
3361 1 25.5309865661 2.19225840779 0.347541155499
3366 1 24.8125716827 3.01355198944 2.57430244486
3367 1 27.2168297781 2.94201130224 2.57545107179
3368 1 26.3445792998 0.662011938852 2.12678232016
3369 1 28.7781677239 0.639182960216 2.10939876082
3375 1 27.9535304167 2.1684393695 0.354682266059
4033 1 30.3626691189 2.14090143786 0.361120764974
4038 1 29.6407253205 2.92300680638 2.57459672256
4040 1 31.2073928059 0.605407307233 2.1186940421
4039 1 32.0632682278 2.89378718009 2.59072765044
4041 1 33.6285342056 0.61188793573 2.12109097571
4047 1 32.7487667537 2.10848992007 0.393654583157
4710 1 34.5090349055 2.88344489273 2.47836208417
4705 1 35.1787839444 2.04645465563 0.350164718348
5 1 39.1402881163 2.78311165523 2.80456583305
4711 1 37.2508193008 2.60359307273 1.43782149945
4712 1 36.090103502 0.64965882614 2.15784587461
524 1 38.5694798967 0.478803107402 2.05332955378
5241 1 39.0214260038 2.07471409594 0.127387790153
4729 1 36.4715694574 3.480005838 3.59171146103
7 1 3.30326213834 5.42836321274 3.26420162692
11 1 1.84704139112 6.08997487416 1.27017424674
20 1 0.521274673198 5.32883745908 3.36851742983
4870 1 0.218872565636 4.14686595526 1.02999466266
13 1 2.69261120297 7.75533863165 2.77344722593
678 1 4.99330398176 3.93694444167 1.50503626651
679 1 7.44301546881 3.95266857221 1.5288894796
30 1 5.78288066382 5.46542244856 3.27359822396
12 1 4.18233026506 6.16646084164 1.05124326429
683 1 6.63040304915 6.21505469415 1.06979259208
677 1 5.06559927239 7.73284814007 2.78092972959
682 1 7.48239481222 7.76474033884 2.77535821259
1350 1 9.90787752692 3.97286365005 1.53485681515
684 1 9.09651213255 6.23462355294 1.06315604452
702 1 8.23318046875 5.48836559066 3.27707926389
1349 1 10.6983640637 5.49179966657 3.27974567858
1355 1 11.5784934157 6.22850050919 1.06197631264
1353 1 9.91254162577 7.76178501357 2.81029162998
2022 1 14.8183304878 3.91655225847 1.61550638448
1351 1 12.3634551548 3.95610451957 1.54362233139
1374 1 13.1683722194 5.48372920343 3.29096318754
1356 1 14.0901186197 6.20552955772 1.07342285083
2021 1 15.6585435997 5.45678109574 3.34094192282
2025 1 14.7952487133 7.70323472639 2.89297044177
1354 1 12.3583300237 7.75017194548 2.83304172273
2167 1 16.7284699813 6.16100394666 1.09424808429
2845 2 19.1018299599 4.92582731498 1.24998649998
2183 1 18.0270592722 5.49312527194 3.25704527537
2026 1 17.1954578966 7.71276727312 3.01681499033
2028 1 19.6302062666 7.14035174735 1.32382896278
2693 1 20.8254009328 5.57416872321 2.90716118753
2700 1 22.3183282439 6.82931375944 1.19742195496
2701 1 21.4269746905 4.20514294168 0.770059921545
2720 1 23.2010702296 5.37262503205 2.91190273163
2702 1 23.9337292283 4.52029318072 0.77977128102
3365 1 25.6647926592 5.27802618148 2.985736785
3371 1 24.8295383769 6.80084894832 1.22383675702
3372 1 27.2982838699 6.74999155505 1.22674418644
3373 1 26.3997366436 4.4674948085 0.793763495802
3390 1 26.5376345795 7.54844590849 3.42544378217
2719 1 24.1037263279 7.61334504894 3.40576438083
3374 1 28.831310124 4.44550431966 0.796884579776
3391 1 28.9730058854 7.48901253927 3.43494378582
3392 1 28.0979756596 5.22203727807 3.00562663144
4037 1 30.5493064147 5.19480330824 3.02558290893
4043 1 29.7390215504 6.71807921684 1.23930098712
4045 1 31.2320781751 4.42046498745 0.812773616396
4062 1 31.4118444296 7.46615549533 3.45891982604
4044 1 32.1455306848 6.7078189852 1.27552503082
4046 1 33.5980776159 4.34230260056 0.802383824514
4064 1 33.0090539155 5.12515246763 3.05733451794
4715 2 34.4245444205 6.46570989588 1.23930204356
4709 1 35.4674343174 5.56080345798 3.03703179835
4063 1 33.7659674245 7.41393296584 3.476783739
9 1 39.0646549609 6.55421285124 1.09089530548
4717 1 35.9254960259 4.36194577294 0.858852223642
4736 2 37.739429855 5.01035842786 2.16116064458
4716 1 36.7660759793 6.81165793763 0.633966662587
4734 1 37.7707348052 7.24896219067 3.15770959313
185 2 0.428402501154 7.80899148784 2.66971160677
15 1 3.42861863616 8.46339949938 0.530237243625
1 1 1.05931097766 8.36281051036 0.392023784104
172 1 2.53713270244 10.7508613628 0.159359357899
186 1 1.84569913034 9.98091789125 2.41994424063
4868 2 0.198848287807 10.4202819721 0.987354612022
681 1 4.23476650752 10.022497996 2.30733205975
673 1 5.85275903962 8.50981510902 0.589285238682
685 1 6.66628247141 10.0424904351 2.33734325435
844 1 7.47425752656 10.8071033771 0.142826071464
843 1 4.9962359262 10.7933678415 0.121039810886
686 1 9.10475380784 10.0370592287 2.34772526579
687 1 8.29474316078 8.51825799245 0.596359939557
1345 1 10.7450965327 8.50500120691 0.597664856384
1357 1 11.5458650085 10.0174367635 2.3491089242
1515 1 9.94008037404 10.8039819016 0.147388181402
1358 1 13.9859356913 9.9791759213 2.39332804372
1359 1 13.1963736666 8.47120702543 0.611213720076
1516 1 12.4079567917 10.7944149569 0.158031747944
2187 1 14.8458665119 10.6892171147 0.247327146707
2029 1 15.6255949033 8.38790108423 0.680798835196
2064 2 19.4150644775 7.79368952554 3.57500440196
2208 2 17.8703703801 8.44663044683 0.757776877922
2699 1 16.4010756275 9.94704198544 2.48171635803
2202 2 19.3703748343 11.4273964406 1.72518376722
2047 1 17.4509612231 10.6067531375 0.268826482224
2718 1 21.6646939016 7.77402083482 3.42729939341
2698 2 21.1982114138 9.14021143776 1.44418283863
2721 1 23.4165169414 9.07670687168 1.62008620351
2864 1 21.8026234151 11.4080638328 1.98600476324
2716 1 20.0783685281 10.1546577079 3.60830041129
2865 1 24.2430147597 11.3753664669 2.01134811418
3370 1 25.8117694025 9.07429475049 1.64122261014
3536 1 26.642340524 11.3642136856 2.06316347887
3393 1 28.2390722929 9.03037055543 1.65150200431
3537 1 29.0551670201 11.307853901 2.10050836175
4042 1 30.7230494653 8.98259077652 1.66555004312
4208 1 31.4875079908 11.2527107304 2.11332299152
4065 1 33.3030406205 9.08293717747 1.73682069101
4209 1 33.9276584027 11.4807585672 2.04726630173
4726 1 35.7261055803 8.2102792125 2.22194545079
171 1 38.8562473126 9.99483278485 3.04879552324
4737 1 38.0529429529 8.8269413463 1.00461233131
4880 1 36.0953084058 10.4855073613 1.86429730417
170 1 0.805452107552 12.3413542657 1.92472991461
192 1 3.38505572377 12.3222262737 1.86100595138
319 1 2.7221183533 14.6408928247 1.55392401912
5027 1 0.432490757874 14.8241838343 1.72135513482
184 2 1.77337904977 13.6239486204 3.49578027689
842 1 5.84433045801 12.3233938199 1.89121508763
846 1 5.10363249763 14.6289938613 1.49478162297
847 1 7.51395396455 14.6168265112 1.47493418679
191 1 4.20648298716 13.8526719683 3.67742521168
862 1 6.63672434431 13.8361859321 3.67680410899
864 1 8.30542498213 12.3208065736 1.90405614596
1514 1 10.7788978039 12.3132215133 1.89683940748
1518 1 9.95703474995 14.5895124086 1.49108048233
863 1 9.08370220901 13.8250835116 3.68301531521
1534 1 11.516241045 13.7724523884 3.68995835987
1519 1 12.3956899928 14.6460911798 1.48821346622
1536 1 13.2451103511 12.2809083087 1.9278202985
2186 2 14.6409515645 14.2082210656 1.67278428994
2226 1 15.7966806077 12.2673294132 1.96885472124
2350 2 17.7471792924 13.8493798111 2.43464633562
2196 1 19.2539646491 15.1861384681 0.694003489314
2206 1 16.8033003883 14.9703525514 0.67161607648
2351 1 18.5257978157 12.9326274961 0.331957738531
2189 1 16.3042211307 15.5342960706 3.2191222472
2191 1 20.1415197679 13.7096337686 2.51684659874
2862 1 20.9956135051 12.9622071062 0.416787366032
2863 1 22.5995148578 13.6765254662 2.45377770774
2869 1 21.7444225028 15.2103701649 0.69596246482
2871 1 23.3768072604 12.8653138075 0.292847880607
2870 1 24.1989975366 15.1350181908 0.734991072258
3529 2 25.743212119 12.8049639589 0.21117770105
3534 1 25.0285500882 13.6364616135 2.49417030953
3541 1 26.6463664772 15.0916809455 0.782388968028
3535 2 27.4942730149 13.6584932093 2.64980613199
3542 1 29.1161917651 15.1024428762 0.779251084641
3543 1 28.2127546214 12.8403619334 0.364878869509
4201 1 30.6304099187 12.8080926663 0.364816351933
4206 1 29.851517919 13.5953670848 2.55099766079
4213 1 31.6423140979 15.0632843284 0.775231588002
4207 1 32.2058181671 13.4849716438 2.6069806121
4215 1 33.0142642302 12.7847321809 0.26016783044
4226 1 34.2869831347 14.0055265456 1.69958349054
4904 1 35.4231933857 15.5287820237 3.28410585363
4887 1 37.9753578685 11.6980050664 1.19883332772
4898 1 36.5045914473 13.3102749504 2.28128111354
173 1 38.7454140889 13.6685396133 3.27448926595
318 1 38.437801072 13.8715208634 0.426469055134
4878 1 36.2130428753 14.971793663 0.737623058449
4879 1 37.3280248166 11.6746592071 3.67527952355
4873 1 35.728032741 12.6334417279 0.0451584199964
178 1 2.8256663735 18.4295364337 2.82762868017
198 2 3.65069582415 16.2425124524 3.0208028987
310 1 1.97501329109 16.9203525506 1.16630600217
183 1 3.56222504042 19.2223567238 0.637418670393
179 1 1.09556369601 19.1490949599 0.701049019354
190 1 0.560243657758 18.7272223141 2.93512665983
4896 1 1.07228676397 16.0858323094 3.69053463417
180 1 4.38729772946 16.9524391187 0.974238788349
845 1 5.91071712758 16.1405171488 3.25278362432
849 1 5.16595989762 18.4517209994 2.81296020851
850 1 7.55415841786 18.4071939498 2.87114698474
851 1 6.77741152641 16.9454586832 1.0230292899
841 1 6.02251107097 19.2294180838 0.603881921942
852 1 9.14551895132 16.8704970121 1.07552069623
870 1 8.31252085194 16.1002273466 3.24557699167
1517 1 10.7840821388 16.0831739077 3.23863964791
1521 1 9.9905966463 18.3968830643 2.83001404845
855 1 8.50750680623 19.1693191983 0.831621092836
1513 1 10.9513061853 19.2685759478 0.723671209039
1523 1 11.4494387422 16.922417257 1.00060079517
2190 2 13.6224692539 16.9840676481 0.961355683449
1522 1 12.3917777581 18.393166943 2.76529207703
1524 1 13.4960728397 19.2446612591 0.620176811897
2193 1 14.9533746881 17.6109346875 2.59986646961
2194 1 18.5482534832 16.0715114151 2.69706551689
2199 1 17.3154601682 17.4079336744 0.923388455973
2867 1 19.4268171329 18.2050047832 3.24837580265
2215 1 17.1131669153 18.1421357212 3.27721224263
3007 1 20.0202932574 17.4643840899 1.00459398538
2888 1 23.3947768138 15.9332837092 2.90647965474
2868 1 22.5276156999 17.4378548595 1.12539875683
2886 1 21.8006475152 18.1888593253 3.32581797894
2861 1 20.9430821455 15.9498618588 2.84077334031
2887 1 24.2227652095 18.197640552 3.3957589691
3533 1 25.8344341153 15.8953985653 2.95990966325
3539 1 24.9949300237 17.3969252691 1.20414193261
3540 1 27.4311158732 17.3801848679 1.21926286431
3558 1 26.6615796691 18.176379142 3.42295956683
3559 1 29.1249813117 18.1522670421 3.42860302132
3560 1 28.2647368492 15.9077145962 2.98026239358
4205 1 30.6797194095 15.8833699755 2.98489949417
4211 1 29.8595013953 17.3907834434 1.22309996918
4230 1 31.7595291341 18.1302693543 3.46037166595
4212 1 32.1989566524 17.4649259572 1.0900004652
4232 2 32.9674368078 15.8709572597 2.86470772624
4883 1 34.216660214 17.8475358699 2.31934136388
4214 1 34.2091377339 16.1696232086 0.747057702497
4885 1 39.3107664066 16.9869717115 1.71077774661
321 1 36.3138264909 17.2209440291 1.41192463547
4884 1 37.9297297029 18.8296637512 1.7712725578
4886 1 37.7183651944 15.8550793734 2.97124009784
4902 1 36.3565252545 18.3138806382 3.58198183993
325 1 38.0531294181 16.2333403657 0.0050503334789
181 1 2.0828749388 20.636651021 2.14525028834
360 1 3.56355955188 23.0679243869 1.95181339744
340 1 2.77991202169 21.4577932098 0.121887227814
353 1 1.09156551369 22.6548836703 2.13670376989
4905 1 0.21421178334 21.8562546888 0.00155854058564
182 1 4.4323179031 20.7682965164 2.37167246459
853 1 6.83999022182 20.7236632466 2.37890183576
1010 1 5.98684647589 23.0048276692 1.97513528297
1012 1 7.65116130873 21.4207909904 0.158828551591
1011 1 5.19818619221 21.5115277266 0.166886488205
854 1 9.31234934376 20.7451564012 2.48853803115
1032 1 8.41760975951 22.9909899936 1.95241917114
1683 1 10.1329127552 21.5591418382 0.28678876969
1682 1 10.8805953153 23.0572529181 2.01761142305
1525 1 11.7865984845 20.8003047075 2.39028743555
1684 1 12.5834950136 21.6176898172 0.17981950737
2369 2 14.2675148404 21.1136914078 1.71513432777
1704 1 13.2812544698 23.2259825494 2.02977170641
1526 1 16.0182741755 19.6748289993 1.7271469123
3026 1 18.4123555084 19.6531096504 1.4827331651
2197 1 16.7255497575 21.9811722192 2.02200127415
2376 1 19.1801258802 21.9597925016 2.06148515542
2387 1 17.7295932529 20.399825708 3.69218464374
2866 1 20.8957937032 19.6739050782 1.5505500883
2889 1 23.3561231813 19.6794866615 1.63167528061
3032 1 21.6804895991 21.9398636689 2.10203409308
3033 1 24.161537725 21.9458472991 2.09076577386
3538 1 25.8034582354 19.6827960937 1.66877160418
3704 1 26.6018717768 21.9750886381 2.12619606269
4210 1 30.6828679268 19.6623365245 1.68391073864
3561 1 28.24495865 19.6797204859 1.6714607984
3705 1 29.0765090941 21.9698548678 2.1024325065
4376 1 31.5964772158 21.9556297188 2.09212705052
5037 1 35.4547068082 19.5713168451 1.37665869667
4233 1 33.0552915221 19.7904291912 1.60102529354
4377 1 34.3330627581 21.9144277026 1.80362021193
4882 1 36.6660172745 20.9021551588 2.84561421093
177 1 39.1254225933 20.8532152392 2.15676016446
4901 1 38.0993980789 23.0436557277 1.99253846075
5048 1 37.0110095055 21.3799413487 0.59370497351
343 2 2.92263039438 25.4256416283 1.39724879633
366 1 3.47347595652 26.658879416 3.32755057085
5066 2 0.160639179764 26.5044492982 2.67698225052
5043 2 0.163987337586 24.1414319386 0.75269133959
1013 1 5.90522679691 26.8167271583 3.31972773888
1014 1 5.18269791597 25.3091150721 1.52672230964
1015 1 7.57655117217 25.290821539 1.50198874204
1038 1 8.30828545569 26.82785523 3.29240258287
1685 1 10.6987743085 26.8865412148 3.28941697904
1686 1 9.98307789484 25.3054281235 1.5027550959
1687 1 12.4212869701 25.3999562311 1.47765736872
2358 1 14.9821769324 25.6296117681 1.6353664222
1710 2 13.0270300683 27.0189192971 3.20965706256
2354 2 15.5375469644 23.7884050195 2.72421818022
3035 1 17.3079634202 26.3179445726 0.783863050502
2505 1 19.4888738662 25.7651946543 0.853554785286
3046 1 18.2464052044 26.619508747 3.06317226264
2359 1 18.5359557894 23.5703228417 0.365450974443
2374 1 17.6632954092 24.3792692016 2.38224864532
2517 1 16.1937820483 23.8882180886 0.314571976051
3030 1 20.0562383257 24.209454157 2.59091769012
3039 1 23.3560248568 23.4532059659 0.352942212082
2364 1 20.9358745343 23.4694625036 0.378693164221
3031 1 22.5096043941 24.202626388 2.56159352471
3056 1 23.2963233259 26.4697862665 3.00302706322
3029 1 20.8225198311 26.4763748981 3.02202867427
3037 1 21.8043401388 25.7308730584 0.851565464074
3038 1 24.1822584606 25.7172490796 0.785707705261
3697 1 25.7774269117 23.4764214775 0.341878141391
3701 1 25.7420896363 26.4959977167 2.99357022935
3702 1 24.9500680079 24.2159352166 2.57539105754
3703 1 27.3848757009 24.2523991228 2.56111780042
3709 1 26.5782249823 25.7568232926 0.770451310201
4369 1 30.6717117735 23.4818787859 0.346159981457
3710 1 29.00571985 25.7759442415 0.780813682116
3711 1 28.2145447483 23.4925295377 0.3417385954
3728 1 28.1783914705 26.5397423688 2.9906578571
4373 1 30.6048576953 26.5613982957 2.99657903612
4374 1 29.8270016322 24.2543353595 2.55181738132
4381 1 31.4617333784 25.7880937997 0.786353527042
4383 1 33.1149641974 23.4784276072 0.356580251578
4375 1 32.2311686326 24.2687430537 2.54809409481
4382 1 34.0120476552 25.837310622 0.872165793168
4400 1 32.9787161352 26.6049299671 2.98010972239
5045 1 34.5033396359 24.2106467059 2.75057792724
5087 1 35.2854509495 26.769158045 3.05188710091
5046 1 35.5838596916 23.4344554546 0.360130323202
5055 1 36.483421807 24.9274012741 1.89222488938
5041 1 38.439374228 25.9172057198 0.66388532485
356 1 37.5967419723 26.5288039071 3.21455882813
5070 1 36.472955929 27.1013984416 0.888784182907
347 1 1.80715193382 27.4942718124 1.12068919384
337 1 1.04143868172 29.7826059338 0.845894240516
346 1 2.81818571382 29.1212961116 2.67114073528
351 1 3.43891325 29.9112541006 0.554322032253
348 1 4.22808377323 27.5769313176 1.12537755138
1009 1 5.85675144743 29.8897753636 0.577493556427
1017 1 5.15610520554 29.1038642857 2.78088855003
1018 1 7.51508064329 29.1169652438 2.81563854039
1019 1 6.65340100983 27.562704544 1.07537205136
1020 1 9.07553217931 27.5865589233 1.07793684797
1023 1 8.26829487443 29.8798199089 0.592335383697
1681 1 10.7106095093 29.8930788537 0.594343849239
1689 1 9.91092312152 29.1594249243 2.81434485892
1691 1 11.4891088655 27.6292810371 1.09000169051
1690 1 12.3475476238 29.2131593937 2.80698363721
1692 1 13.9649600423 27.668347609 1.13882656585
1695 1 13.1592886875 29.9201011101 0.567161030702
2361 1 14.7295189052 29.2945957823 2.86712973496
2353 1 15.6408007032 29.9139730086 0.647785937316
2366 2 16.2901421475 27.9152453471 1.94674347514
2362 2 19.3784675201 28.5760318031 3.32752532798
3198 2 18.2766561455 30.201536855 0.960080129579
2381 1 20.0669805304 28.0632969096 1.31670949174
3057 1 23.2791221432 30.2083887738 1.63453965525
3034 1 20.8005731102 30.3684043881 1.86087852384
3054 1 21.7164991483 28.7171746852 3.47144460331
3036 1 22.4721095867 28.0241323317 1.24294622545
3055 1 24.1315825161 28.7422814138 3.41899151197
3706 1 25.6979692182 30.30119292 1.63212831256
3707 1 24.9170347627 28.0101610157 1.21013224328
3708 1 27.3432493352 28.0421605787 1.20702740498
3726 1 26.5505715659 28.7990648898 3.41307091663
3729 1 28.1141352117 30.3384971675 1.63760029437
4378 1 30.5433337026 30.3490724432 1.63473174623
4379 1 29.7685383569 28.0626651414 1.20608886992
3727 1 28.9943735529 28.8332435776 3.41478721098
4398 1 31.4421530579 28.8478857606 3.40783371552
4380 1 32.179720618 28.0812588553 1.17336187758
4401 1 32.9615546843 30.3908632988 1.59736175515
5051 1 34.5702111227 28.2842363255 1.1618007569
4399 2 33.902295812 28.932061036 3.37550288356
5050 1 35.3690359207 30.6439919071 1.58921268934
5062 2 39.1183780673 30.0225681295 3.13976087641
5064 1 38.8431827889 28.1829318042 1.49020197557
5206 2 37.057068155 29.4102969347 0.955147567297
5069 1 36.573904916 28.8933781856 3.24521077258
349 1 1.68809743504 31.316121151 2.39638090245
528 1 3.28647656216 33.673745296 2.01560679417
5223 1 1.19850893197 34.5489846504 0.0383804576456
520 1 0.824422301984 33.5385537105 2.22759345705
508 1 2.50490167044 32.2075648578 0.208510344014
350 1 4.14109571213 31.3665578848 2.42990423615
1021 1 6.59661625793 31.3851054415 2.40001029244
1178 1 5.71516653855 33.6626727067 1.96499446013
1179 1 4.96589277101 32.152435051 0.168396772624
1180 1 7.40627678541 32.1547681368 0.180739914665
1022 1 9.04620147633 31.4131281975 2.37992112844
1200 1 8.19457746498 33.6890298861 1.95171862695
1693 1 11.4971506266 31.4381934321 2.35870823565
1850 1 10.6427898437 33.7096390306 1.93424707583
1851 1 9.85721033288 32.1730515144 0.161943505336
1694 1 13.971654055 31.4604269792 2.33436011077
1872 1 13.0856302533 33.7106518189 1.89987735384
2522 1 15.5240251358 33.6765168558 1.92895281628
1852 1 12.3137953723 32.1540311218 0.124145648115
2523 1 14.7546665258 32.11955014 0.0864495203261
2365 1 16.4810973465 31.4595611688 2.42945058496
2543 1 19.0360234815 32.1623682881 2.70600906957
2688 1 17.969037725 33.9699658994 1.62378054537
2524 1 17.1451854054 32.1432132198 0.281019688445
2367 1 19.6584567025 31.9677847575 0.346281600621
3200 2 21.3882007507 32.878868395 1.38024526975
3207 1 23.07996968 34.2119083898 0.376862043853
3199 1 22.1173982043 34.8342290804 2.62830967137
3201 1 23.862737324 32.5838716022 2.09630085409
3865 1 25.5208091965 34.1645176929 0.31634708826
3872 1 26.3621494582 32.6159418128 2.05687743572
3870 1 24.6462183748 34.8758231969 2.50550324087
3871 1 27.1449844439 34.9175894242 2.4876185772
3873 1 28.8302464775 32.648220765 2.04585906135
3879 1 27.979292121 34.1894012926 0.289846127231
4537 1 30.4203946502 34.1940067841 0.265077178435
4544 1 31.2712175194 32.6486515117 2.03095895531
4542 1 29.59648611 34.9497752866 2.46329377553
4545 1 33.7114476176 32.6326716294 1.9831004109
4551 1 32.8684012916 34.183179736 0.254756749596
5209 1 35.3236008179 34.1984879866 0.21924754161
4543 1 32.0115131243 34.9502343722 2.45808431974
5214 2 34.338772306 34.8581168669 2.48884945962
5216 1 36.0974016669 32.8657056367 2.01917400658
5362 1 37.9102278046 33.6835109024 0.556198172913
5052 1 38.2975846667 31.5063313165 1.74641490817
521 1 37.9446213488 33.7259589878 3.51525007481
511 1 2.53830636381 36.0136292588 1.55123126911
534 1 3.1661709923 37.5306083448 3.39355773732
510 1 1.83965143508 38.4206381996 0.950570773512
506 2 0.935427594891 37.4639879021 2.79845887786
516 1 4.25714950786 38.2912389582 1.15476673459
1181 1 5.89496119076 37.4043671179 3.14429524554
1182 1 4.9644793954 35.9703785799 1.52768318774
1183 1 7.42118739067 36.0154023516 1.49285177602
1187 1 6.68737177036 38.3622937088 1.09933063194
1198 1 6.73640343392 35.1026685388 3.59875064066
1188 1 9.10226714197 38.3351084362 1.11268667555
1206 1 8.24611286616 37.512522506 3.27774161702
1853 1 10.6582553249 37.5499567794 3.27801437323
1854 1 9.83168247539 36.0234381169 1.51668343263
1859 1 11.4885866852 38.3103674858 1.07140715565
1855 1 12.192830277 35.9909970736 1.50818867519
1860 1 13.8470507898 38.3080769934 1.00103118135
1878 1 13.0728202391 37.5428433933 3.22574353244
2526 1 14.4814708463 35.9720271543 1.44042520877
2525 1 15.4943432259 37.4878673109 3.16832264277
1871 1 13.8422589543 35.2391523069 3.6824930785
2527 2 16.6439813756 35.8806856009 1.37386095306
2531 1 16.1422314416 38.2586736366 0.887893017501
2682 2 18.3329090479 38.4361131744 0.742958173197
2550 2 19.7735312275 35.5772114914 1.87128222933
3205 1 21.6039793074 36.6799944282 1.06706161723
3224 1 23.0846260958 37.0808912282 3.03356073869
3197 1 20.4262161045 37.0939139621 3.60013823392
3343 1 20.4734029198 38.7506061144 0.389162004183
3206 1 23.9085038941 36.4805506693 0.766650880056
3869 1 25.5307302486 37.1766257178 2.9656595934
3877 1 26.3482998077 36.45807996 0.747094399545
3875 1 24.8694336049 38.7380958843 1.19912713778
3876 1 27.2030565706 38.7565557025 1.15693234937
3878 1 28.7707556659 36.4850444828 0.715913021433
3896 1 27.9646579367 37.2214457287 2.93092788937
4541 1 30.3865096849 37.2366751706 2.93461137276
4549 1 31.1906148567 36.4601246821 0.741849757986
4547 1 29.5765118906 38.769231381 1.19656196893
4550 1 33.5798083395 36.4923047934 0.739890121663
4568 1 32.784811512 37.2424436515 2.93621533356
5233 1 35.1146468767 37.2544693993 2.90442757158
4548 1 31.9892291866 38.753811291 1.18335770155
5219 1 34.4216650311 38.7727760741 1.13991320449
5217 2 38.906553282 35.1291881884 1.86769732356
5215 1 36.624829439 35.3387881229 2.14554821957
5213 2 35.9004129904 36.6312408396 0.376629451961
5240 2 37.2772060177 37.525449988 3.17654830555
5220 1 36.9396229779 38.4870761158 1.19372932168
5234 2 39.0261582062 38.2069179385 0.436050419211
514 2 3.02259249431 39.8660896765 2.53632047822
517 1 1.52136015123 41.7354101537 2.26555421199
519 1 3.56361034914 40.6172494568 0.436370059042
515 2 1.2493137635 40.6814613329 0.115542823362
518 1 4.24929326012 42.0501083851 2.30177620103
1177 1 5.98217456295 40.6688094841 0.664184912637
1185 1 5.1665847756 39.7430985274 2.93382658673
1186 1 7.5158323514 39.8275796825 2.88794178167
1189 1 6.71359376274 42.1079126096 2.42290800529
1190 1 9.12911442833 42.1278902688 2.45591863138
1191 1 8.3820508175 40.6381872331 0.681726833459
1849 1 10.8004348535 40.6084443068 0.667025232017
1857 1 9.88707533994 39.8353287769 2.87060435089
1861 1 11.550928944 42.1456206214 2.39255642528
1858 1 12.286199823 39.8205232034 2.80045278599
1862 1 13.9524426295 42.1061829404 2.42150594373
1863 1 13.248178903 40.6040474674 0.631755854081
2529 1 14.7254983526 39.7701195199 2.7497150824
2533 1 15.7716924699 40.6528411157 0.653392327657
2034 1 16.3519978512 41.9738456082 2.63182963509
2548 1 19.4361221955 39.2393607802 2.66819515555
2549 1 17.1397902721 39.5507661062 2.77024941151
3202 2 18.3109006787 41.4323523595 1.63932886284
3204 1 22.6413896854 38.9279333776 1.05391009332
3221 2 22.2773568877 42.6058924033 2.92530873035
3225 1 23.2319742664 41.0820330499 1.62216052946
3222 1 20.7823383628 41.0814108983 1.64732299428
3203 1 21.6715967531 39.0154383082 3.03325770858
3223 1 23.9759566404 39.3837638058 3.40162545824
3874 1 25.5926707151 41.0848121112 1.60523140214
3894 1 26.3619772687 39.5088639093 3.36132991444
3892 1 24.6487788089 41.7879784573 3.69811578828
3897 1 27.9751603138 41.0625332814 1.61281265465
4546 1 30.3504064773 41.0572424759 1.64557399759
4566 1 31.2108065392 39.5326376054 3.38829649026
3895 1 28.7838607106 39.5254412757 3.37626512237
4569 1 32.6935247233 41.066979745 1.68384929431
4567 1 33.6282808929 39.526059413 3.372326458
5218 2 34.9423573209 41.1246443809 1.74982354826
505 2 39.201876804 40.8524807747 3.16986075832
5238 1 37.3824785931 41.1411329806 1.58940599314
5232 1 36.015756801 39.5968925349 3.3055138267
22 1 1.54093190852 3.11956483176 4.06629179045
18 1 2.68259089964 0.767144405696 3.72141707795
42 1 3.39413543349 2.57708127005 5.85524344499
17 1 0.324575211641 0.286241425595 4.05990746933
35 2 1.70614453085 1.20111797086 5.65529843343
694 1 6.61748287229 3.21728026825 3.73950491099
36 1 4.04423701788 0.277556329195 6.22851262461
689 1 5.0392301485 0.907468154688 4.09163604117
688 1 5.74517339882 2.42231938779 5.90453163695
690 1 7.4413434461 0.919739396474 4.1879590416
707 1 6.48628022235 0.161307312402 6.3575289504
695 1 9.04334653535 3.2140455909 3.74632191773
1366 1 11.472186019 3.21766664542 3.75782169963
714 1 8.15222247275 2.49612646191 5.92705238132
1360 1 10.5773336965 2.45137924052 5.95074791078
1361 1 9.83039567654 0.938648190299 4.19680841226
708 2 8.87735031981 0.253329942336 6.45326898835
1379 1 11.3193680174 0.154395268138 6.37108320857
1367 1 13.9019021814 3.21373219632 3.79614802043
2033 1 14.6249576954 0.951113745381 4.23322817318
1362 1 12.2255555764 0.938983485353 4.2028901624
1386 1 12.9857835859 2.45732292491 5.98314111162
2036 1 15.3697491431 2.5249255234 6.04717074691
1380 1 13.693822958 0.145041465295 6.42149308721
2051 1 15.9652773379 0.291688711277 6.27326074225
2023 1 16.3215953597 3.17479895909 3.87738295414
2694 1 18.6151836863 2.85895825482 4.44322959112
2058 1 17.035802995 0.906816671474 4.26448144458
2038 1 17.6462033208 2.16647642058 6.4884969321
2704 1 18.8493344835 0.294911141839 5.53666473898
2692 1 19.9438439433 2.65988734615 6.56272157728
2182 1 21.1465338542 1.52110166335 4.62110744411
2707 1 22.3685232078 2.53047412918 6.53675650084
2715 1 23.3926038331 1.61524577733 4.42517783873
3364 1 25.6413895846 1.39004877401 4.3795438727
3378 2 24.7571449188 2.68897635071 6.43185346697
3379 1 27.144844143 2.10581792385 6.53266838727
3385 1 26.4438498301 3.7380926929 4.77529352712
3386 1 28.881028235 3.69027622136 4.77494854698
3387 1 28.0109528228 1.3965549902 4.33399346815
4036 1 30.439049043 1.39193996678 4.33382608583
4050 1 29.6099274781 2.16023614464 6.5367899142
4057 1 31.3572395823 3.67645235808 4.79814331684
4051 1 32.0605109083 2.09671953601 6.54031429284
4059 1 32.8609807266 1.35156600677 4.3341617927
4722 1 34.5064606045 2.00961397572 6.62223813545
4058 1 33.8923502436 3.55113729113 4.74009085126
4708 1 35.2598910146 1.45364098248 4.3042509235
4725 1 37.6736768988 1.52335250697 4.35528831439
4728 1 36.4369371624 3.24804372037 5.97099210949
6 2 38.673993137 3.65359608211 4.79886310008
4731 1 37.3648690348 1.44146955387 7.36913570077
10 1 1.80400826383 7.00095846951 4.90736782614
21 1 2.54317836548 4.80818488786 5.43780835348
47 1 3.3617280646 6.31599526155 7.10758589329
4751 1 0.88661053743 6.38502238386 7.23303760705
29 1 4.24603615456 6.98706536089 4.95238838876
692 2 4.90742388356 4.62912264384 5.471491183
693 1 7.37218715597 4.75842301866 5.46944375596
700 2 6.70871560914 7.12037308784 4.97197494066
691 1 5.77285067924 6.26593829172 7.16493607172
701 1 9.06959889625 7.01038387869 5.01540584623
719 1 8.18533808119 6.26753450418 7.20853543867
1363 1 10.6216065841 6.25738428449 7.23894827168
1364 1 9.81515413268 4.73827503232 5.48739624116
1372 1 11.4814335422 7.01118402383 5.03736138692
1365 1 12.2795029643 4.74513454706 5.50288834779
2035 1 14.7642233484 4.75799474089 5.54125833262
1373 1 13.885793393 6.98636527378 5.06472111522
1391 1 13.0500220061 6.26438078203 7.26734675757
2062 1 15.470703925 6.21864293263 7.35267670287
2039 1 17.285834927 4.61347814898 5.7392218859
2027 1 16.2708255041 6.93719578511 5.2015896152
2045 1 18.5328307731 6.85723399507 5.36762907249
2040 2 19.5273008872 4.85027996579 4.68836784754
2060 2 19.5417745373 7.35528258672 7.26941828751
2713 1 21.5387784498 3.90088853597 4.74321067597
2712 2 22.5853479037 6.18470057503 5.03014478926
2736 1 23.266613942 4.72403319775 6.90596056484
2705 2 20.9765407452 4.56694045629 7.1840639385
2734 1 21.7177511574 7.00013215454 7.20975778032
2714 1 23.9955776482 3.93966192656 4.68883248898
3377 1 25.6883483693 4.64707417913 6.97447741906
3383 1 24.9247360626 6.15143853783 5.16000282358