ITEM: TIMESTEP
42000
ITEM: NUMBER OF ATOMS
5376
ITEM: BOX BOUNDS pp pp pp
0.0 39.5600404449
0.0 42.7297273569
0.0 37.0050293879
ITEM: ATOMS id type x y z
2 1 1.02953747755 1.91721573751 1.98786943238
24 1 3.42688076751 1.81451756909 1.94528699794
4 1 2.73238842013 0.336743068131 0.108573465346
3 2 0.56111456876 0.410183358288 0.206187410895
674 1 5.81068041558 1.78546249437 1.86525280514
676 1 7.42979951235 0.235584541854 0.0736459174963
694 1 6.58499896081 3.31175222717 3.62843044816
675 1 5.04413332513 0.280560240654 0.065637007068
23 1 4.16847608031 3.35145606392 3.69216022184
696 1 8.21391417784 1.75634144357 1.85091434081
1346 1 10.6154093035 1.75990773624 1.84280796785
1347 1 9.83749474051 0.206860223929 0.0928230241994
1366 1 11.4567495998 3.30509687465 3.60830115239
695 1 9.01696456496 3.29623467585 3.61501027069
1368 1 12.9970700171 1.77243579858 1.84022313656
1348 1 12.2596219901 0.19166890886 0.121024331197
2018 1 15.3264865957 1.77315224786 1.78942298102
1367 1 13.9168938228 3.35621341227 3.64460342231
2019 1 14.7116759099 0.173066154887 0.0888027944327
2020 1 17.5550641849 1.70473543235 2.06737616843
2170 1 17.2645776038 0.181697235741 0.141863957603
2683 1 19.55514267 0.773822480798 1.95961531072
2023 1 16.4261629011 3.10035075066 3.69855340329
2181 1 19.8945851125 3.06949487507 2.67184299784
2695 1 22.4267959212 3.07168720703 2.67572087555
2696 1 21.7742073964 0.701291205827 2.23489051555
2689 1 20.980912625 2.37755918435 0.613378289492
2703 1 23.2636866197 2.1498195793 0.560349876249
2697 1 24.1416831425 0.74024428055 2.24151778391
3361 1 25.6604978779 2.25690914898 0.402414391414
3366 1 24.8999843217 3.00775997294 2.66442433025
3367 1 27.3248576821 2.99606811822 2.62366024829
3368 1 26.4954554825 0.721472376238 2.18108599475
3369 1 28.890783931 0.688324638732 2.19686158877
3375 1 28.0829325969 2.21304271559 0.420368866664
4033 1 30.4984768817 2.24471649975 0.412861051726
4038 1 29.7495317564 2.99102865645 2.62689179211
4040 1 31.3001068996 0.711373973222 2.18865613971
4039 1 32.1370993667 3.04206771024 2.6497993857
4041 1 33.7145733301 0.697597829559 2.14282804344
4047 1 32.8944055572 2.28933752259 0.410770087376
4710 1 34.4681111218 3.0246032439 2.64817232872
4705 1 35.19297798 1.99415752056 0.480039755577
4711 2 38.3448854714 2.0377410692 2.33263458912
4712 1 36.2438356936 0.683729385591 2.15494657575
4717 1 36.7281426868 3.55173255345 2.04738130178
5241 1 38.2696951762 1.87252450164 0.0378251394278
165 2 2.64235115694 4.01280008243 1.68276955275
7 1 3.34363136298 5.66476974609 3.24177945656
11 1 1.81751157313 6.2840230884 1.07458681751
20 1 0.893773023583 5.64325129288 3.26582921838
4736 1 0.0139808936119 4.06894747765 1.47062696747
678 1 4.99743666297 4.07069614314 1.43952145818
679 1 7.41832173575 4.05156578772 1.40907274385
30 1 5.79717480485 5.60476582862 3.19275574191
12 1 4.18802910302 6.35955550099 1.0183902758
683 1 6.59507606657 6.32820534138 0.955415932823
1350 1 9.85863967959 4.04299106493 1.39686437625
684 1 9.02463600737 6.29765895507 0.928202400654
702 1 8.23646842052 5.58026640686 3.16985265756
1349 1 10.6848015815 5.56809929582 3.17812732743
1355 1 11.4632549547 6.29655740385 0.933075249153
2022 1 14.7615337597 4.05002555285 1.43160174775
1351 1 12.3070470029 4.05155068419 1.40259828144
1374 1 13.1506368865 5.62722056394 3.20718445009
1356 1 13.8772574997 6.23551147739 0.92815420419
2021 1 15.6339498887 5.51857057009 3.23895324056
2025 1 14.649374504 7.69736851865 2.70639082249
2167 1 17.2280339503 3.96624595095 1.44292050626
2183 1 18.1512682768 5.32523994394 3.22418442742
2028 1 19.518936221 4.5285385161 0.98828721938
2026 1 16.3103525058 6.19555602907 0.921264428194
2027 2 17.1380391471 7.47793481318 2.73337806105
2064 1 19.2258342328 7.54145585779 3.59966938956
2208 1 18.6267168558 6.61808381913 1.15485216668
2693 1 20.730166627 5.49516846113 2.88048132819
2700 2 22.3985382278 6.98410100559 1.31109853176
2701 1 21.8624190564 4.62757919388 0.910175841963
2720 1 23.2730856602 5.34375658844 3.01254747563
2718 1 21.7245189895 7.64334343322 3.53339464807
2702 2 24.1776516906 4.45045919999 0.969327528949
3365 1 25.7213268881 5.29879642233 3.02704075645
3371 1 24.8408465652 6.8130471405 1.29463065285
3372 1 27.2942550917 6.78936861788 1.28931939128
3373 1 26.5663587253 4.51796837943 0.863389992363
3390 1 26.552986282 7.56189823465 3.49008712295
2719 1 24.109229221 7.61953948659 3.471390203
3374 1 28.987168879 4.50850899219 0.830664118881
3391 1 29.0207955629 7.52914465558 3.48767669115
3392 1 28.197244452 5.2717782511 3.03475585286
4037 1 30.6793705443 5.23157138778 3.05082201676
4043 1 29.7735376399 6.79473949659 1.27855334668
4045 1 31.478633115 4.55815455339 0.798431561729
4062 1 31.4903466098 7.514706192 3.43858215987
4044 1 32.2419440718 6.92743897043 1.1612430623
4046 1 34.1989992832 4.51902521802 0.767816509488
4064 2 33.1071457201 5.46117978292 2.61785245054
4715 1 34.8131729987 6.9912471304 1.11408565381
4063 1 33.9117648969 7.71130719766 3.33392163038
4709 1 35.597395969 5.67193558969 2.82096846629
9 2 39.1690597714 6.39127783439 1.22820797201
4734 1 37.9741100641 5.68466006503 2.96504213433
4716 1 36.9840145892 5.55033511374 0.609235814116
4737 1 36.7739230414 7.71881359014 3.53116002593
13 1 2.53432255367 7.94082437635 2.77241157109
15 1 3.34858229782 8.66052365895 0.59251825273
186 1 1.71972625069 10.252688782 2.27339597917
1 1 0.92861189641 8.56715499288 0.69150154055
172 1 2.50984182824 10.9000191574 0.0401009516452
185 1 0.0337921537746 7.97977807716 2.82703701497
677 1 4.97443263317 7.88311678007 2.73816443342
682 1 7.38906887464 7.84265384071 2.70715785587
681 1 4.20921537051 10.1414157989 2.2902008109
673 1 5.80036410356 8.64310656721 0.538500657088
685 1 6.6587192182 10.1473343918 2.27393678392
844 1 7.45146554019 10.9074291194 0.0624125327586
843 1 4.99607014371 10.9167073404 0.0719684277405
1353 1 9.80296934287 7.79008036156 2.66543216221
686 1 9.07758067072 10.1221777104 2.26205023467
687 1 8.21723987965 8.60232562308 0.505671497567
1345 1 10.6145266897 8.57256208104 0.4777976201
1357 1 11.4808378998 10.074980529 2.2095128877
1515 1 9.90560800661 10.8968219561 0.0814676173502
1354 1 12.2088279672 7.80528389914 2.72370379089
1358 1 13.8460670876 9.97893311425 2.18182025099
1359 1 12.9624452082 8.48432088765 0.455024725056
2029 2 15.1786158395 8.39631495737 0.466735809356
1516 1 12.3191753365 10.8296341772 0.0224199773132
2699 1 16.2741099103 9.96840212029 2.13321804699
2202 1 18.4650141953 9.36556206424 1.86850503263
2698 1 20.4726049673 8.05640114916 1.46827362524
2721 1 23.0702109631 9.17750303372 1.80583918136
2716 1 20.4785761329 9.74694397536 3.09163517629
2030 1 20.0216589126 10.5655988391 0.37219202966
2859 2 22.5819546393 10.7113261096 0.0715642856682
2864 1 21.6759624631 11.6083990256 2.15052475707
2865 1 24.0935573876 11.3980889614 2.20170348394
3370 1 25.6452270548 9.0740029845 1.74959339559
3536 1 26.5360093276 11.3520132582 2.17758338589
3530 1 24.8857752155 10.6077419138 0.00187915633264
3393 1 28.1439553407 9.05938100477 1.73323717627
3537 1 28.9670865469 11.3263165727 2.15644695573
4042 1 30.6380119516 9.05947381447 1.70576329888
4208 2 31.3739494179 11.3615381533 1.94796455068
4065 1 33.1365163459 9.20503207615 1.52212498256
4209 2 34.1769413399 10.3082725248 3.37887114043
4726 2 35.558504463 9.01121485303 0.396372349689
4732 1 37.5352391917 8.04361431327 1.25599575392
4880 1 36.2774901237 10.3097357483 2.18194131551
171 1 38.8617744039 10.2158194743 2.16266701993
192 2 3.5601258371 12.3132928316 1.80867253642
319 1 2.43612503728 14.4260243197 1.46715212622
170 1 0.936084324105 12.5217939851 1.74635022395
4896 1 0.321029040095 15.3484158843 2.12529821291
842 1 5.91932710498 12.4446509114 1.7995050172
846 1 5.03718945535 14.6878319905 1.37777901928
847 1 7.55545089105 14.6958696533 1.37798138001
862 1 6.67463077317 13.9600132191 3.56656479658
191 1 4.17630986055 13.9730612368 3.5655188179
864 1 8.36660956724 12.4189833555 1.8014384688
1514 1 10.8502600267 12.4185964509 1.84005573883
1518 1 10.0445026705 14.7084696823 1.34526533684
863 1 9.12858093902 13.936256846 3.55760986318
1534 2 11.3416494256 14.3297347024 3.49937505981
2226 1 15.6790556732 12.1844342656 1.4863992105
1519 1 12.6415315217 14.6335441695 1.37548770403
1536 1 13.3711107539 12.326923523 1.66165717328
1535 1 15.0836526375 14.0093047169 3.08151444017
2186 1 14.9961072714 14.5245347146 0.8852366196
2350 1 18.0329208323 11.8052019476 1.47649420554
2196 1 19.5134212686 15.0892701727 1.11337775194
2206 2 17.2530792794 14.2703138081 2.21431580408
2225 1 16.9388161839 12.4466984378 3.53259327274
2191 1 19.5260227987 13.4999205904 3.10127707929
2862 2 19.9153326655 12.7802800393 0.922489509662
2863 1 22.4906302207 13.7371655634 2.73203309906
2871 1 23.2514255734 12.9772106329 0.45972412982
2869 2 21.9688986731 15.3294746909 0.949967150557
2870 1 24.2254708219 15.1747344273 0.871973971808
3529 1 25.6966555317 12.9043127949 0.433964837076
3534 1 24.9528461322 13.6516448788 2.65467126098
3541 1 26.6253641692 15.1635920848 0.855558453422
3535 1 27.3891593331 13.6147869042 2.62879602037
3542 1 29.0699308733 15.1463944578 0.842087473391
3543 1 28.1257540772 12.8751357275 0.401214634695
4201 1 30.5313486997 12.9279719622 0.315363027756
4206 1 29.8021660988 13.5687003922 2.598974974
4213 1 31.5288118197 15.1844292271 0.792524550093
4207 1 32.1402925251 13.5779477224 2.49845454947
4226 1 33.9867047912 11.9862257995 1.92180641884
4214 1 33.974872044 14.5370966723 0.917081793127
4895 1 34.1530246134 14.0471534372 3.41364261547
4215 1 32.9004523869 12.7690611817 0.0275485162352
318 2 37.8114618207 11.8751292235 1.04594451613
4904 1 36.0351041988 13.2629530103 2.00466113783
173 1 38.4831847747 13.1038595713 2.80196296508
4878 1 36.2774763931 15.223015318 0.278335520658
4885 1 38.5295237615 13.9169219851 0.203962770018
4886 2 37.624837995 15.0598451421 2.23662768038
178 1 2.79824051955 18.5329427255 2.70680297745
198 1 3.43994003937 16.178664073 3.04796032769
310 1 2.1530397253 16.9109213964 1.05904398848
183 1 3.53272229351 19.2366719828 0.437813455679
179 1 1.22886836664 19.1892069567 0.613817116259
177 1 0.236278344616 18.2694397547 2.74167647729
180 2 4.53432163097 17.0593803053 0.978154907517
845 1 5.91916757448 16.2334920386 3.10396514876
849 1 5.19235616788 18.541051159 2.71926388729
850 1 7.59999839597 18.55495075 2.70924369207
851 1 6.82527966577 16.9982769981 0.93116715902
841 1 5.93051506581 19.2878076555 0.474808807024
852 1 9.23669932953 16.9902354904 0.933619451664
870 1 8.34608471377 16.2691700465 3.12082956322
1517 1 10.8324179861 16.4133309635 3.06947171571
1521 1 10.0150660584 18.6291193954 2.68676053854
855 1 8.30056244852 19.2698168193 0.472982991013
1523 1 11.689175964 16.919792295 0.862973074943
1513 1 10.6289245315 19.1719503732 0.396555711835
1522 1 12.3894052481 18.4860057412 2.61392527182
2193 1 13.4834296221 16.1007489048 3.13470909325
2189 1 14.7761782987 18.5853053304 2.47189139289
1524 1 12.9231516229 19.0227543896 0.320430904606
2190 1 14.1105526358 17.0102280729 0.820583399433
2207 1 16.0704342601 16.341968627 2.16044967302
2194 1 18.707966081 15.9284853382 3.24269339688
2199 2 18.2310644704 17.3503950955 1.59171041841
2867 1 19.4193075669 18.2206946319 3.55339436152
2215 1 17.0551704154 18.3817076888 3.21527057449
2195 1 16.641950408 18.3665166556 0.370674232378
3007 1 20.4087624357 17.4015519888 1.36561569953
2888 1 23.4488137925 15.9576226177 3.09609648992
2868 1 22.7185659342 17.5047026395 1.30591465384
2886 1 21.8138144785 18.1809543203 3.50143413389
2861 1 21.0535014814 15.8132274806 3.15316266335
2887 1 24.2389742369 18.2203662775 3.49776597655
3533 1 25.8367400859 15.9165074547 3.07177332418
3539 1 25.0999949891 17.4566205349 1.29317068575
3540 1 27.5101330916 17.4298933198 1.27775479498
3558 1 26.6475606463 18.2010457705 3.48612583888
3559 1 29.0253751828 18.1504964078 3.50026478801
3560 1 28.2367642624 15.8691906802 3.05722689234
4205 1 30.6353233224 15.7314072389 3.17639683223
4211 1 29.9443354766 17.3682880557 1.3029860588
4230 2 31.2457001815 17.9987918918 3.6378309001
4212 2 32.373768506 17.5982553239 0.803173888088
4232 1 32.9701264529 16.1212883909 2.67793772832
4883 1 34.7550438968 17.2294496507 0.697192260212
4897 1 35.3169099714 18.0313854475 2.94181438484
321 1 35.474692459 15.7426667194 2.37111709824
190 2 39.4347033312 17.3046553757 0.707104122897
4884 1 37.2657823539 17.3273058975 1.49330720528
169 1 38.3017336791 19.3935094808 0.731072258534
5037 1 37.4942380523 19.2897064756 3.05121490222
5048 1 35.9320540639 19.2826370124 1.00042223239
181 1 1.97552274196 20.742073038 2.25357139897
360 1 3.5235089034 23.0835698453 1.84411256498
340 1 2.76547455714 21.6043778234 0.0955091522239
353 1 1.09826886901 22.9280228939 1.79907617501
4905 1 0.35056031489 21.3330078815 0.0363390756851
182 1 4.36278292185 20.7935169312 2.2178192849
853 1 6.74859915727 20.8228669203 2.23478573914
1010 1 5.94232664476 23.1033863524 1.81142605937
1012 1 7.57848129832 21.5837333336 0.0302689668939
1011 1 5.14770891269 21.5942752761 0.035892363662
854 1 9.11804139824 20.8596698768 2.23971951635
1032 1 8.36914377272 23.133605203 1.80661606656
1682 1 10.8173795219 23.1522316249 1.80518493535
1525 1 11.388005705 20.8266761663 2.02909650198
1683 1 10.0300943087 21.5517484037 0.0151552710834
1543 2 13.5446789876 20.7250942432 1.8011198785
1704 1 13.3541856967 23.175323162 1.80511610796
2192 1 15.2348022036 20.7187860617 3.47813288995
1526 1 14.9909162577 19.9480430294 0.155893853552
1527 1 15.9939342597 22.4468726564 0.391055111378
2197 2 16.5991969562 20.3438398082 1.70785149163
3026 1 18.7982437419 19.6545500495 1.69377394714
2376 1 19.3718799582 22.0524153073 2.03522941898
2354 1 16.9263632656 22.6903376238 2.55166653665
2387 1 17.8709581591 20.5981953856 3.6973063606
2866 1 21.1208721476 19.7117114528 1.72911041544
2889 1 23.4936828349 19.7505957563 1.73390254155
3032 1 21.8406083375 21.9652119963 2.21002648521
3033 1 24.2486472528 22.0254184924 2.15241774555
3538 1 25.8891739099 19.7377833797 1.70323263056
3704 1 26.6568623346 21.9818504881 2.18049193985
4210 1 30.7861909512 19.5818578752 1.70355174748
3561 1 28.3198109636 19.6891581818 1.71125917338
3705 1 29.0398179523 21.9558391706 2.16817981216
4376 1 31.3407934819 21.923897059 1.98153289144
4233 1 33.4380252362 19.6007731748 1.50693329218
4377 2 33.5445603009 21.8336098901 1.86386862234
5044 1 35.2378732236 20.7686313112 2.91102871342
5046 2 36.8596621931 21.2920247767 1.51763309503
4882 1 39.1970714095 20.7880598675 2.39741087542
5055 1 38.2720848777 22.971406493 1.62801022417
343 1 2.78482184787 25.3736741203 1.4057298382
366 1 3.37231136383 26.937713328 3.15511570133
5066 1 0.527879754571 25.1538869311 1.31205816307
341 1 0.957171955442 26.7632898415 3.10232533426
358 1 1.84993733524 24.5627926394 3.54086205369
1013 1 5.83651469486 26.9579717647 3.14785176634
1014 1 5.12179096506 25.386319991 1.40193068183
1015 1 7.4997164834 25.4053080146 1.39076064192
1030 1 6.7051506967 24.6515307027 3.59157151549
359 1 4.2809958302 24.6374895824 3.59183195448
1038 1 8.28748096328 26.9579403442 3.16120913992
1685 1 10.7502127597 26.9626039807 3.16575736649
1686 1 9.90194806161 25.4090373567 1.40133809586
1031 1 9.1174926367 24.6712614983 3.59506700366
1702 1 11.53529895 24.6267311261 3.6117171596
1687 1 12.2795029034 25.4097223208 1.43286264921
1710 1 13.1918458386 27.0358102146 3.17870970775
2357 1 15.7507575488 26.6801032787 3.19584037806
1846 2 14.5180510456 25.5593212469 1.41099602641
2358 1 13.8817241523 24.8466618234 3.69966091033
2517 1 16.5806545905 24.8170572434 0.942256335864
2505 1 19.1796628913 24.8453162657 1.26188730656
3046 1 18.0212511519 26.7407124366 1.92777841543
2374 2 17.4884154155 24.9377816102 3.20833810493
2364 1 20.9638871861 23.3148399054 0.440073029658
3030 2 20.5075452358 24.0825705354 2.84685810399
3039 1 23.4207795049 23.4758931285 0.378462912404
3031 1 22.7182057732 24.2323326161 2.60458916962
3056 1 23.3155111846 26.5756358614 3.08498931604
3029 1 20.8204414262 26.4742972434 3.03691075754
3037 1 21.7239949604 25.6086720409 0.874937525037
2381 1 19.9784219431 27.1599539257 0.831000434818
3038 1 24.1278299131 25.7649246367 0.880047183055
3697 2 25.8916828677 23.5352843994 0.511885149976
3701 1 25.7577102785 26.5771227592 3.07025635444
3702 1 25.0521735758 24.2917571454 2.62646086436
3703 1 27.4471921171 24.2763449178 2.60887712477
3709 1 26.5540745903 25.8073347053 0.869083558852
4369 1 30.6483372786 23.532472314 0.331146432417
3710 1 28.9591589644 25.7986666945 0.842162288576
3711 1 28.2442308974 23.4980974045 0.400913004146
3728 1 28.1790844158 26.556864724 3.067241259
4373 1 30.5901603685 26.5256877191 3.06726944724
4374 1 29.8473153343 24.25798257 2.57058334273
4381 1 31.3306673095 25.7878439325 0.825546523442
4375 1 32.2446805166 24.1863298595 2.54685733718
4382 1 33.6306119144 25.8927385428 0.699959316922
4400 1 32.973312643 26.4729280966 3.00069108289
5087 2 34.5961967548 24.5388155683 2.25183972408
5206 1 35.4131724378 26.6280217977 2.9728397774
4383 1 33.1709327553 23.5449782291 0.309450110431
5201 1 36.0773695131 23.4772081679 0.28518639345
5045 1 36.6670823382 24.4785401029 3.03382346131
5192 1 35.9125524529 25.9428903944 0.76214196603
5049 1 39.0047960131 24.4396231041 3.36165826268
5070 1 37.8996048599 26.5331868346 2.75073081241
5204 1 37.9605971668 25.102563076 0.6699160949
5041 2 39.0928257017 27.1888550256 0.969037335495
347 1 1.75845235209 27.7120103162 0.975529234295
346 1 2.47536265731 29.1754835838 2.67124394932
351 1 3.29302582313 29.7330271568 0.335490323498
507 1 1.21959697566 30.6621830337 1.0709254218
348 1 4.25442433088 27.610552283 1.03065486403
1009 1 5.72889339818 29.9570959613 0.519616706992
1017 1 4.90676340217 29.261197192 2.67737262662
1018 1 7.3917431218 29.2319292973 2.69614770295
1019 1 6.63549821378 27.681456588 0.9440714978
1020 1 9.04904154086 27.6874822762 0.962408676201
1023 1 8.18809087133 29.9610428649 0.511861701129
1681 1 10.6711040227 29.9727044636 0.51475302925
1689 1 9.88233481466 29.24473916 2.70836141399
1691 1 11.4659504938 27.726663708 0.980885296308
1692 1 13.8487042686 27.7288152199 0.828799499447
1690 1 12.3722721277 29.3046471633 2.73901653202
1695 1 13.2297857929 30.0056324726 0.565232554839
2361 2 14.8670056494 28.7731529631 2.47901107747
2353 1 16.0293817274 29.8386478682 0.312558729366
3035 1 16.1826756547 27.5041987513 0.792314779042
2362 1 19.5876498218 28.5497726274 2.74839139075
3198 2 18.1753819019 28.6190663101 0.619553471059
2366 1 17.2645904861 29.0071715423 2.85969028178
2367 1 18.8035993206 30.8094416105 1.44081171071
3057 1 23.2994407526 30.329447473 1.77372932994
3034 2 21.0790341109 30.2062741655 1.82946748334
3054 1 21.765200773 28.7631668838 3.65535105093
3036 1 22.3023425913 27.9957325271 1.35340148786
3055 1 24.1334043024 28.8442960504 3.54889847591
3706 1 25.6702709961 30.3631791227 1.7879857678
3707 1 24.8318666621 28.064138855 1.32913507476
3708 1 27.2989346009 28.0762831545 1.3172517082
3726 1 26.5251448843 28.8700881395 3.53024801536
3729 1 28.0719888723 30.3758198718 1.77457064968
4378 1 30.4484318597 30.3496745805 1.7283561288
4379 1 29.7352565283 28.0685697249 1.30242734194
3727 1 28.9224889942 28.8361563634 3.515518678
4398 1 31.3429841178 28.8243058494 3.46803080289
4380 1 32.149550949 28.0624201652 1.26090213108
4401 1 32.7853485702 30.3586365162 1.69381423695
5051 1 34.5891718577 28.1310210198 1.24967028281
4399 2 33.7498031616 28.6276502299 3.31016105519
5050 1 35.07465342 30.3993077872 1.80914628301
337 1 39.3813683078 29.2378601299 2.49372797188
5062 1 37.2391483357 30.48090181 2.41836606571
5195 1 37.0055645164 28.288198769 1.27574789227
345 1 38.5160811925 30.6870785949 0.453867037075
528 1 3.48700411589 33.9248157625 1.86238535927
5222 2 1.31225993495 31.2703728325 3.26069694286
521 1 1.34311188688 33.2736727872 2.0337890162
350 1 3.80593934803 31.4874774191 2.24323098957
508 2 2.63088021679 32.2134892004 0.167821737386
1021 1 6.42383011743 31.4991004424 2.25008137011
1178 1 5.77240009375 33.8229004293 1.80332049041
1180 1 7.34786319071 32.2559617231 0.083575030399
1179 1 4.92446942364 32.2434037512 0.118201062093
1022 1 8.89514358274 31.5032395258 2.26830741798
1200 1 8.15627848113 33.814355317 1.80767992838
1693 1 11.2870972409 31.5147754571 2.30068458178
1850 1 10.5752856477 33.8145174194 1.82233325458
1851 1 9.80656314611 32.252756466 0.0963149162015
1694 2 13.49308635 31.6437405174 2.35042216643
1872 1 13.1066722569 33.8376654711 1.87123013704
1852 1 12.2712421209 32.2520754831 0.136311309054
2523 1 14.7935874999 32.2056352665 0.232403105179
2522 1 15.9968528295 33.8808584585 1.81081370096
2365 2 16.6477639671 31.3666746896 1.87385501593
2688 1 18.7400328604 33.0548469324 2.28041643102
2524 1 17.2669649133 32.3756256347 0.0336881230159
2532 1 18.4170393465 34.6664772784 0.342512073811
3200 1 21.3237300216 32.6295493795 2.10616717057
3207 1 23.1643572748 34.1001943098 0.409812725033
3194 1 20.7316585258 34.3629872973 0.558680597768
3195 1 22.2898419145 31.7978079975 0.0687324382908
3199 1 22.6719191447 34.9363756725 2.53744265964
3201 1 23.9098584522 32.6903712899 2.25184451518
3865 1 25.6238100705 34.1586512306 0.42883761017
3872 1 26.3977324851 32.6786326954 2.21874948448
3866 1 24.7889897668 31.8456850336 0.0688714187942
3870 1 24.9535086603 34.9364950677 2.6237434216
3867 1 27.242016837 31.8901074462 0.0149746282915
3871 1 27.3243569271 34.9582664304 2.62575985914
3873 1 28.8242436098 32.6885024449 2.17955201293
3879 1 28.0451498138 34.1982977099 0.410446776904
4537 1 30.4477286417 34.214386055 0.383979010072
4544 1 31.1912969887 32.6457962918 2.08502114789
4542 1 29.7503096826 34.9431560973 2.62944676623
4545 2 33.5982370199 32.7081277437 1.84045789071
4551 1 32.8557167753 34.2751036461 0.362866758918
5209 1 35.2737207681 34.2021803145 0.463714874027
5214 1 34.6149894726 34.9213548463 2.6868234066
4543 1 32.1850207622 34.8747007489 2.65931563135
5202 1 38.7244039161 32.3555050554 2.1320100113
5216 1 35.960711994 32.6373664112 2.23483980383
5362 1 37.6612192015 33.967676763 0.585621733774
5215 1 37.2500276368 34.4929461291 2.96374248531
5211 1 36.7714001015 31.9692151139 0.0212985664819
511 1 2.44473635132 36.0543759449 1.54643546395
534 1 3.19459017934 37.6342426454 3.16354445194
510 1 1.64423294281 38.4556166751 1.14427631304
506 1 0.755262306363 37.6125158104 3.38897377969
546 1 1.64028048874 35.2559252114 3.66230479666
5223 2 0.800604534957 36.3833066155 0.0888652072306
1181 1 5.66530325537 37.6511944494 3.17814968797
1182 1 4.84867033162 36.1356134592 1.3924583357
1183 1 7.29368567844 36.1165875973 1.38745358691
1187 1 6.51865005623 38.412389966 0.974542032777
516 1 4.04919853713 38.4017666165 0.937266782076
1198 1 6.48749749466 35.3747357092 3.55616299166
527 1 4.04921018091 35.3520023391 3.69241933122
1188 1 8.95922336513 38.3743665004 1.01096706959
1206 1 8.0987886684 37.6346087476 3.1950444888
1853 2 10.4990867685 37.4403147399 3.08332576182
1854 1 9.70943558103 36.0702733542 1.35911428763
1859 1 11.3838775436 38.3672471418 0.976782908955
1870 1 11.285329295 35.3137660224 3.59989743867
1199 1 8.89203837324 35.3501420339 3.57561363624
1855 1 12.1429740277 36.0748732317 1.41835188873
1860 1 13.8097942782 38.3342979509 0.962691588371
1878 1 12.8960968941 37.6667283925 3.13058911654
2526 1 14.5552999337 36.0278207479 1.48351250337
2525 1 15.3294545835 37.7317675682 3.12664723318
1871 1 13.6117676694 35.3966922297 3.64962410807
2527 1 16.8960021353 36.2332124542 1.3557814283
2531 1 16.221565208 38.376515557 0.89629170326
2682 1 19.373427776 36.7302943281 1.49867816047
2530 1 17.7671731796 37.6213017959 3.25122104474
3215 1 18.0941572622 35.2481886364 3.02514863524
2542 1 15.8683535647 35.5163019306 3.62420104223
2550 1 20.4051164881 35.0511738364 3.0613587999
3205 2 21.720296456 36.3629480171 1.0088434762
3224 1 23.0659345321 37.3599049876 3.03524841019
3206 1 24.0757175783 36.389047809 0.890039234024
3869 1 25.5680985139 37.2720706161 3.07086448013
3877 1 26.45148911 36.4819331707 0.896053202757
3875 1 24.7829864006 38.7948365808 1.32866272035
3876 1 27.1970785562 38.8024743608 1.32543454518
3878 1 28.8740545179 36.4869170468 0.874522559356
3896 1 28.0509674988 37.2674928779 3.06790497337
4541 1 30.5024425249 37.2410108685 3.06341664791
4549 1 31.3104246377 36.4491343703 0.877848142655
4547 1 29.6027543516 38.7997682875 1.31952421556
4550 1 33.7983359233 36.4663072837 0.896883072214
4568 1 32.9250234255 37.2297330249 3.03317667099
5233 1 35.339745814 37.2766465025 2.94998633719
4548 1 31.9575902087 38.7866368526 1.29992018919
5219 2 34.1866675414 38.8425620733 1.15370660538
5239 1 39.3683798125 35.1628718193 1.8162898916
5217 2 37.8045132946 36.9268701343 2.88547169387
5213 1 36.5331255958 36.1584523832 1.02199770759
5220 1 36.5912759542 38.6174517369 1.32434233857
514 1 2.56538216598 39.9808889867 2.70747028545
517 1 1.70935104851 42.2618741247 2.24894663364
519 1 3.30772910802 40.7199979981 0.503212850417
505 1 0.170757480991 40.2486176501 2.68888564966
515 1 0.794336761825 40.8420492431 0.321281859433
518 1 4.14431149097 42.2556904587 2.24284045702
1177 1 5.76675582865 40.7087110555 0.481897052466
1185 1 4.97416478305 39.9561184158 2.63353609758
1186 1 7.39087185317 39.9219555097 2.72314325055
1189 1 6.57164407421 42.2093883132 2.27633950249
1190 1 8.98650200386 42.1652538372 2.29813057154
1191 1 8.20208576975 40.6579419605 0.526487724501
1849 1 10.6359694596 40.6474377454 0.574328220161
1857 1 9.79433326021 39.8655387836 2.76316030111
1861 1 11.3790877048 42.2128353369 2.29316381366
1858 2 12.2262361858 40.0239349705 2.68611922692
1862 1 13.7950958913 42.1937078751 2.25368890432
1863 1 13.1017474586 40.634102578 0.508705775823
2529 1 14.5872807353 39.9239782849 2.65240248479
2533 1 15.6221086715 40.6886937805 0.613779692913
3197 2 19.478766341 38.9120349705 2.42354899784
2034 1 16.2216187252 42.3054706796 2.3681193982
2549 1 17.0144667835 39.805707175 2.62344124471
3202 1 18.381411474 41.3798223925 1.67509204417
2535 1 18.8955132465 39.2275828672 0.327301114336
3204 2 22.5181241732 39.2468416164 1.36638907473
3225 1 23.2358975187 41.3032446516 1.78922731565
3222 1 20.7383888195 41.1355315455 1.77275799546
3203 1 21.6144329427 39.6594274554 3.44118603105
3223 1 24.0161116958 39.6219843724 3.49794223525
3874 1 25.6466178123 41.1550574296 1.76158648174
3894 1 26.4284547294 39.5829450769 3.50987751878
3897 1 28.035424265 41.1166826022 1.76201450648
4546 1 30.4314816902 41.1187484125 1.75659431779
4566 1 31.2523746011 39.5454631332 3.51524202586
3895 1 28.8445880686 39.5651592626 3.51980617328
4569 1 32.8104926391 41.1143334928 1.72635131555
4567 1 33.6478591998 39.531737775 3.44166068894
5218 1 35.1994108581 41.1117613649 1.69678364502
513 2 38.8760445062 39.1160116222 0.912666761259
524 1 38.7852507163 42.5728564006 2.31211546176
5238 1 37.5386299503 40.8191234209 1.5821907186
5232 2 36.0654655898 39.6329723252 3.45478156143
4707 1 36.7233746922 42.4089840212 0.0611586481638
22 1 1.72526716567 3.41192075331 3.78637241047
17 1 0.19637910621 1.15063251206 4.11350087153
18 1 2.49691483446 1.0589464068 4.11077755516
42 1 3.24828697557 2.58584838572 5.85529421653
35 1 0.806361773125 2.72594150263 5.89650130678
531 1 1.40955266726 0.272089701513 6.29949847929
36 1 4.03075457411 0.272816556262 6.2648794472
689 1 4.92829145702 1.03051143028 4.06157678368
688 1 5.70955214154 2.54571637153 5.83214659269
690 1 7.34768363449 1.00593402768 4.05630320398
707 1 6.49901019225 0.237030612756 6.26243565896
714 1 8.1473139236 2.52646328431 5.81747314887
1360 1 10.5749177974 2.51961373451 5.80719306845
1361 1 9.76023004776 0.996193371801 4.04841371541
708 1 8.95093523455 0.238524932044 6.2611278033
1379 1 11.4276562167 0.24157298105 6.25412578751
2033 1 14.4706403713 1.05195163746 3.93335387816
1362 1 12.1506190592 1.01360150662 4.04531777799
1386 1 12.9927401644 2.51833902366 5.79144525922
2036 1 15.3600222465 2.76614652386 5.90481020265
1380 1 13.995978488 0.247749408033 6.21401270371
2058 1 16.5562991604 0.782566089402 4.81135205624
2694 1 18.6327062602 1.49205544033 4.19981848784
2038 1 17.7491668512 2.48625134871 6.27351622111
2051 2 16.2762218466 0.999984430519 7.10116263027
2040 1 19.2055415793 3.83438146372 4.85534755551
2534 1 20.9112662219 1.56105697822 4.39379833808
2692 1 19.9974675278 2.25131589302 6.61420312708
2707 1 22.4338609645 2.30579112122 6.5476026537
2715 1 23.2910473659 1.51942933116 4.39912566026
2182 1 21.5907068497 0.0328892997863 6.15884253244
2713 1 21.6223398561 3.86590176742 4.78469413156
3364 1 25.6876402432 1.47778405132 4.40530528119
3378 1 24.8638858949 2.27860559734 6.58894670541
3379 1 27.2912499378 2.24637068241 6.6075999383
3385 1 26.497500949 3.77728002072 4.81798097611
2714 1 24.060273406 3.82477715492 4.81463888636
3386 1 28.9187284894 3.74952796228 4.82379604899
3387 1 28.0771296259 1.45645341644 4.40547011623
4036 1 30.4507887529 1.39124958579 4.40448192165
4050 1 29.7338112843 2.20686535061 6.60137868474
4057 1 31.2778330291 3.60192832738 4.94637604652
4708 1 35.0709534275 1.31585113705 4.2386222078
4051 1 32.2511682126 2.06004622075 6.6532861288
4059 1 32.7899540295 1.34558965637 4.37362772355
4722 1 35.0398638669 2.2128395945 6.44333481029
4058 2 33.6566185092 3.4069985642 4.96264720469
4725 1 37.2874711251 1.66228880613 4.30565532465
4731 2 38.509661637 1.24117207045 6.20301727986
6 1 37.6024646277 3.47165381672 6.05036518098
5 1 38.8215815946 3.64773402921 3.81722346045
4729 1 36.0132235775 3.87635772581 4.36348608788
10 1 1.7531081143 7.20355596703 4.94050786224
21 1 2.5292290472 4.94216231274 5.46255819674
47 1 3.47015578924 6.40484797775 7.18610204122
4730 1 0.0662594626802 5.07070086633 5.50856386485
4751 2 1.22996844544 6.53780522122 7.23708573873
29 1 4.19221021031 7.17916513924 4.95045731166
692 1 4.96561440012 4.87682278008 5.40336835924
693 1 7.39662845671 4.83107630302 5.38587774581
700 1 6.62863691706 7.12969605681 4.94369430684
691 1 5.84022062053 6.36961270279 7.16711243559
701 1 9.05857704678 7.09068505604 4.93348628748