ITEM: TIMESTEP
32000
ITEM: NUMBER OF ATOMS
5376
ITEM: BOX BOUNDS pp pp pp
0.0 39.5600404449
0.0 42.7297273569
0.0 37.0050293879
ITEM: ATOMS id type x y z
2 1 0.910057187357 1.68287971865 1.94966077669
24 1 3.46957201555 1.70627056458 1.93887827974
4 1 2.65301541022 0.25865073951 0.176154413221
3 1 0.228893061401 0.234956088636 0.139944005027
22 1 1.85453550165 3.30033706697 3.6544073974
674 1 5.95039770728 1.71409378353 1.94605909052
676 1 7.54436576793 0.199984404423 0.165590658484
675 1 5.11455730333 0.245498219706 0.1991285605
694 1 6.76746149301 3.241646494 3.67901012656
23 1 4.32709501576 3.23332791239 3.68280081607
696 1 8.38558520019 1.71124755721 1.90133451478
1346 1 10.8155155078 1.6936218641 1.83265509417
1347 1 9.94681562583 0.209688792984 0.0936146070415
1366 1 11.6091756357 3.20872011194 3.54076999613
695 1 9.19343795337 3.23824495627 3.64020516919
1368 1 13.2614929435 1.66683926716 1.78650681234
2018 1 15.6882941145 1.43469004943 1.75410421523
1367 1 14.0203805111 3.21784626349 3.55604589061
1348 1 12.3752543319 0.167964695088 0.0436759875039
2022 1 15.0135898362 3.81311869825 1.29885291635
2683 1 19.2600522861 0.920699635051 2.1754613137
2023 1 16.2933250007 3.10345787558 3.32979582164
2020 1 17.8545536124 2.68929741702 1.50444440466
2058 1 17.2630995567 0.345687494162 3.49229617318
2170 1 17.6049153376 0.177681944234 0.531706677498
2181 1 20.1524956558 3.0946416574 2.80475146261
2695 1 22.5435993027 3.09919598769 2.67948983543
2696 1 21.6710497487 0.769628492698 2.27316084007
2703 1 23.3019116617 2.30981285469 0.442945872102
2689 1 20.8544330289 2.39372710526 0.722234084139
2690 1 20.0357439894 0.1650784617 0.13325588571
2691 1 22.3978783368 0.0554252078336 0.0205019098121
2697 1 24.0596413614 0.690546654016 2.18356168802
3361 1 25.7003124991 2.24209413131 0.449623543547
3366 2 24.924359355 2.80144827296 2.74896381843
3367 1 27.3388287203 2.95989711471 2.63511167159
3368 1 26.4955580774 0.702721850857 2.18381299673
3369 1 28.9306545304 0.683877163939 2.17051788458
3375 1 28.0982639779 2.21565645755 0.424297302158
4033 1 30.5308763521 2.19102037264 0.393200748359
4038 1 29.7672136995 2.95552022537 2.62900687878
4040 1 31.3709275025 0.636240062569 2.14058850845
4039 1 32.1830676511 2.88194562032 2.50213013357
4041 1 33.8157038954 0.550414105747 2.04172060815
4047 1 32.9754240106 2.12645565449 0.316810042574
4710 1 34.8144248907 2.79876024027 2.23272124508
4705 1 35.4123675141 2.18469319981 0.113870305301
4711 1 37.5017900582 2.52055658103 1.81739735536
4712 1 36.168911603 0.301286094643 1.81023653578
524 1 38.4487735272 0.447394962924 2.68398897659
4707 1 37.4051491229 0.808281821846 0.00274394313655
165 2 2.90873570418 3.94040122038 1.56193332088
4870 1 0.374056074407 3.90758493169 1.68178325297
7 1 3.47749856438 5.52139981348 3.26785529966
11 1 2.08767764946 6.15956575977 1.12084358151
20 1 0.750696986227 5.70222870593 3.44200881134
13 1 2.91318049685 7.7664925205 2.84282323416
678 1 5.24594550935 4.01173567856 1.51446520372
679 1 7.64950153446 4.01457334887 1.48151645503
30 1 5.99892944347 5.53332542641 3.26343545392
12 1 4.49506264606 6.33392236265 1.13029159928
683 1 6.89555690128 6.31012342031 1.06008851863
1350 1 10.0879304873 4.00886507522 1.43807948692
684 1 9.32472045298 6.31421705294 1.03483907704
702 1 8.45407924248 5.54219603 3.24074396852
1349 1 10.8786242225 5.52498901616 3.20061141768
1355 1 11.786525011 6.27857439169 1.00880575343
1351 1 12.5563074406 3.9722424865 1.35277051668
1374 1 13.3030619286 5.48207099522 3.07306149974
1356 1 14.3052389417 6.24512209333 0.969181950805
2021 1 15.6872119726 5.55961264127 3.29949624929
2167 1 17.1365176244 5.143856268 1.40047454945
2845 1 19.4665112705 4.6145411925 1.02157455628
2183 2 18.2148165838 4.27692279053 3.20136755777
2028 1 19.007199728 6.98301886159 1.52991056791
2026 2 16.8246166311 7.28627210409 1.75655797988
2693 1 20.522400395 5.38058706433 3.33192155536
2700 2 21.2030277181 6.52874723546 1.55659713383
2701 1 21.9177865196 4.53764223305 0.865790507643
2720 1 23.0416602052 5.52858657671 2.98340764161
2718 1 21.7869528662 7.66009265437 3.62926018984
2702 1 24.2962832378 4.46222494022 0.902467194504
3365 1 25.6000652433 5.22889251075 3.0449224076
3371 1 24.8077293481 6.80095440142 1.32989462276
3372 1 27.2737250621 6.79685637279 1.3196683623
3373 2 26.7130656346 4.57030992613 0.896982644518
3390 1 26.5398658733 7.50609484275 3.51447148382
2719 1 24.1772087053 7.60657524377 3.54669589025
3374 1 28.9742755653 4.49414655301 0.866196534132
3391 1 28.9582604128 7.52089796101 3.50944794899
3392 1 28.075941889 5.24860485482 3.07561736613
4037 1 30.4864858991 5.2485139114 3.06848229418
4043 1 29.7251501246 6.81448206922 1.31373086753
4045 1 31.3635281646 4.5003791553 0.832977250182
4062 1 31.3889328161 7.57496187165 3.44668489327
4044 1 32.0917329533 6.83153442061 1.15898365305
4046 1 33.757329019 4.39577117802 0.561379669661
4064 1 32.8479251351 5.16605809539 2.74390386443
4715 1 34.575487798 6.65063052661 0.976699175106
4063 2 33.6171172028 7.2211267801 2.89215922533
4709 1 35.3770234857 5.2559299584 2.79985559147
9 2 39.4302045736 5.96775097755 1.15352742673
4717 1 36.1961874086 4.4070092299 0.379722487089
4736 1 37.7117753089 4.94308621052 2.33988478553
4716 1 37.0297639777 6.6468481867 0.676330540591
4734 1 38.459881315 7.20947181218 2.98851381992
4726 1 36.2085677587 7.50658254051 2.8883212515
185 2 0.810527751076 8.35159884233 2.90101131783
15 1 3.64877647176 8.58343791576 0.66642975573
172 1 2.84581742329 10.8499034407 0.187668046646
186 1 2.08704278833 10.1115908012 2.34245185
1 1 1.06515731922 8.35903449584 0.610149770764
4868 2 0.608210636135 10.7822540269 0.303025094924
677 1 5.30355308619 7.82025819473 2.86878172767
682 1 7.71896768949 7.83542561759 2.82631369171
681 1 4.48632300836 10.0698838349 2.41128724631
673 1 6.06612231244 8.59009881222 0.630626794661
685 1 6.91395419887 10.1149528285 2.38403411549
844 1 7.63965918249 10.8826304941 0.15344795658
843 1 5.23548567081 10.8771856819 0.185168788346
1353 1 10.1452680248 7.84301048843 2.82071803483
686 1 9.34902965024 10.1276470448 2.36355728873
687 1 8.48271351147 8.59912064242 0.596797623467
1345 1 10.8995895026 8.58904734734 0.574176169049
1357 1 11.7942758071 10.1384184023 2.34936641131
1515 1 10.0469637723 10.8783846364 0.121470040813
2025 1 14.8891972609 7.87729593594 2.64160244672
1354 1 12.5259292133 7.84581148437 2.73979214658
1358 1 14.1784922858 10.2338727873 2.04335619012
1359 1 13.3130833291 8.5317834849 0.492155425366
1516 1 12.4339505326 10.8883426464 0.0415744834283
2029 1 15.6700159169 8.7937071061 0.380554118832
2205 2 15.6938928528 9.74238717008 3.58184488034
2208 1 17.9267870609 9.17776311138 0.724555348652
2699 1 16.7668157957 10.983527695 1.98069765558
2202 2 18.9307681837 10.5142420178 2.44145508063
2201 1 17.6614587821 8.79364864217 3.42658283867
2698 1 20.6656339787 9.00429378479 1.86623556053
2721 1 23.201688222 9.08023717135 1.79291583577
2864 1 21.4721603559 11.3683518011 2.27007198725
2030 1 19.9077423704 10.7352269521 0.204175312846
2859 1 22.3850986574 10.6664114925 0.128028712709
2865 1 24.0108470794 11.3786775859 2.23379688352
3370 1 25.6765196042 9.06494248489 1.7710446322
3536 1 26.4868361845 11.3595557001 2.20796226611
3530 1 24.8379892926 10.6051072164 0.0433514807769
3393 1 28.1250014142 9.06004859539 1.74904875262
3537 1 28.9248866534 11.353800788 2.17276280568
4042 1 30.5918932014 9.11834531881 1.73266693851
4208 1 31.3550932198 11.4286830874 2.0965372603
4065 1 33.09815667 9.24347265259 1.68914363953
4732 2 35.386192118 8.79546439381 0.966444324506
4737 2 37.6943342548 9.50977225257 3.02099715792
4880 1 35.8576405238 10.5899502038 2.24334397548
171 1 38.064201663 11.4283536384 1.61985901446
192 1 3.63405155529 12.2843803649 1.97579547607
319 1 2.87825509223 14.487285483 1.6313967118
5027 2 0.632331950673 14.4606075505 1.74802833744
170 1 1.03352654753 12.2449482243 1.98984591783
842 1 6.04231823073 12.3785335039 1.94756855588
846 1 5.1983717194 14.6188077242 1.49046318236
847 1 7.60059924816 14.6674153686 1.47717662825
862 1 6.83202388268 13.9081312321 3.69400199225
191 1 4.37517341719 13.8995023909 3.69916193903
864 1 8.46059502813 12.3903157152 1.91747414311
1514 1 10.8791576775 12.4258420985 1.89215097225
1518 1 10.041031991 14.6935924722 1.45712818926
1534 1 11.822964045 13.9655810655 3.6065897665
863 1 9.29289420964 13.9028604049 3.65514075339
1519 1 12.5065999783 14.8071530049 1.37728144582
1536 1 13.2484741189 12.4363300206 1.77259117988
1535 1 14.4693734618 14.0649093179 3.09826447831
2186 1 14.9568037743 15.5021485621 1.16458224658
2226 1 15.6312695763 12.8517848604 1.19652121939
2350 2 18.2377619437 12.8457701891 0.589194954927
2196 1 19.3574221181 15.0164972588 1.07522736986
2206 1 17.0826722569 14.7488209531 1.65569501032
2225 2 16.5289196044 12.9680837914 3.35170434446
2191 2 20.1958702436 13.506684568 2.93468134398
2862 1 20.8112805281 13.0289463311 0.555885667019
2863 1 22.5022798391 13.6413385406 2.71718836118
2869 2 21.9328450737 15.2823812803 1.02131849713
2871 1 23.2395381999 12.9208701498 0.517205563964
2870 1 24.2140317163 15.1573155632 0.927877769995
3529 1 25.6875172039 12.8884721477 0.462065212051
3534 1 24.9404192882 13.6470019971 2.6845742818
3541 1 26.6068194981 15.1710737225 0.866481333237
3535 1 27.3683304372 13.6547000993 2.63968371847
3542 1 29.0340570228 15.1728673506 0.819624917503
3543 1 28.1209238003 12.883930296 0.402192380422
4201 1 30.5396099152 12.8588656132 0.329372998562
4206 1 29.7750367439 13.6369373969 2.58298722069
4213 1 31.4680288572 15.0218320025 0.821497666155
4207 1 32.189470762 13.6469376442 2.59108531261
4226 1 33.8619301355 11.966224532 2.14531137274
4215 1 33.0100726037 12.9410660804 0.239478531613
4214 1 34.199246024 14.6931635297 1.44867503532
4898 1 35.891816983 12.5971758439 0.513481708097
4904 1 36.3687083861 13.2052096087 2.67777015559
4878 1 36.4585224442 15.493185744 1.0051677723
318 1 38.1688777927 13.7506631949 1.270833201
4886 1 38.1769128865 15.4760015041 3.08980117241
173 1 38.9811418725 13.3864593274 3.65782070833
178 1 2.0513386497 18.4695168488 3.04162280594
198 1 3.49314030529 16.2098332253 3.29833531441
310 1 2.00743838417 16.7455238922 1.32823879314
183 1 3.38846742434 19.1000446498 0.704782311452
179 1 1.01465112562 18.8427199906 0.46734440672
4896 1 1.06490929471 15.9801980205 3.45948644546
180 2 4.38248848682 16.8294539257 1.00396953496
845 1 5.93552742962 16.1696433099 3.24577770474
849 1 4.95338693978 18.4050389714 2.79587770273
850 1 7.45555386452 18.454978892 2.76498319329
851 1 6.70643877388 16.9340205324 1.01577469759
841 1 5.83712273016 19.1937803444 0.566991009541
852 1 9.07709100162 16.9535107787 1.04393622894
870 1 8.36998383618 16.181433687 3.25661182968
1517 1 10.8218975967 16.2001508199 3.22862759769
1521 1 9.90625979192 18.4659228662 2.79416207789
855 1 8.26488737746 19.2471642883 0.503275709951
1513 1 10.6249175098 19.2667944463 0.608909848741
1523 1 11.4545154432 16.996173517 0.987569974765
1522 1 12.3601046769 18.4799236113 2.7898933093
2193 1 13.3086368797 16.2844166142 3.1854251506
2189 1 14.7928613698 18.3684201613 2.6431246051
1524 1 13.0436456258 19.3605983898 0.64545256371
2190 2 13.6795068281 17.2551075062 0.800516574873
1526 1 15.4742901498 19.2876360707 0.588065302129
2207 1 15.9004955744 16.279387456 3.29558155567
2194 2 18.3929354996 16.0612528265 3.26875439525
2199 1 17.4209572043 17.1880521863 1.54941038386
2867 1 19.2739248131 18.2046058294 3.52480600566
3007 1 20.0683800458 17.3289766451 1.43268893147
2888 1 23.3333098809 15.9430053751 3.112745533
2868 1 22.5617701623 17.4656421833 1.36365603184
2886 1 21.7330384563 18.1952422747 3.49394327001
2861 1 20.8731432215 15.8907715822 3.13567531872
2887 1 24.2175305507 18.2187578322 3.48304693442
3533 1 25.7818135197 15.9568597917 3.06890671287
3539 1 25.03421253 17.4560293945 1.30348549143
3540 1 27.4873088879 17.4605520515 1.25125864901
3558 1 26.6992655378 18.2278274082 3.47152547893
3559 1 29.2089355851 18.2006669231 3.38966715109
3560 1 28.2207919095 15.967591866 3.02329315036
4205 1 30.6674471308 15.9332539335 2.96946141999
4211 1 29.9714599419 17.434191792 1.1819666863
4230 1 31.7647695151 18.1473677432 3.37691230214
4212 1 32.3908909136 17.1999942698 0.834105441728
4232 2 33.040584146 15.9662274752 2.91486751378
4883 1 34.496324965 17.4204761663 1.89884466024
4231 2 33.8925225467 19.3636312644 3.39107339972
321 1 35.7115571609 15.6315670697 3.2283552739
190 2 39.3807459151 17.5832382891 2.23043478486
4885 1 38.7921380376 16.1281377975 0.655674061183
4884 1 37.0012774492 17.4825646259 2.47480514598
5048 1 35.9144413963 18.5258609803 0.549704845719
325 1 38.1969449833 18.57282256 0.538066599633
181 1 1.76711524695 20.6688692357 2.42583482243
360 1 3.49666389168 22.9477026044 1.90594051597
340 1 2.60837503123 21.3743449339 0.168845436607
353 2 1.26154482959 22.8941833289 1.81274829021
4905 1 0.191615156345 21.1355996339 0.680080029746
182 1 4.20150324358 20.6424890937 2.36737430658
853 1 6.61539363719 20.700795602 2.35800040171
1010 1 5.86023490687 22.9988004837 1.9091039331
1012 2 7.37695590706 21.5509450382 0.207870820446
1011 1 5.00879427784 21.4657541965 0.160723291135
854 1 9.03920960228 20.7388531954 2.32653428809
1032 1 8.27424028727 23.0508913818 1.89603786002
1683 1 9.81075457667 21.5855966947 0.134936027474
1682 1 10.6943739591 23.0369759293 1.88669643629
1525 1 11.4697305764 20.7491780158 2.31773965005
1684 1 12.1464218014 21.3990020772 0.00392224347827
2369 1 13.9017561528 20.7380225077 2.41572923991
1704 1 13.0943002323 22.9435565042 1.87430162071
1527 1 14.7333542279 21.5569858361 0.373466153079
2354 1 15.8680974579 22.8762494729 2.74426113951
2197 2 16.2470285693 20.4705640749 2.33993797552
3026 1 18.2968063467 19.5520261558 1.77278491253
2376 2 19.3484565601 21.7219060978 2.20445521709
2356 1 17.6328014667 21.2534049974 0.140780028768
2517 2 16.3642848706 23.0495380376 0.326364520063
2866 1 20.8739430634 19.653065517 1.75264729699
2889 1 23.3831116968 19.7176673646 1.73123063111
3032 1 21.7842422768 21.9435907141 2.11319056694
3012 1 20.0858771806 21.1488562337 0.0464477571243
3033 1 24.2370661984 21.9758126042 2.11862648231
3538 1 25.8633107456 19.7307042279 1.70831127206
3704 1 26.6832338436 22.0153329468 2.11122801217
4210 1 30.8097760482 19.7028387917 1.62207946128
3561 1 28.3365019164 19.7325876927 1.66957781218
3705 1 29.1511654158 22.0217640951 2.09741194316
4376 1 31.5846266656 22.0498826093 2.0342904227
4233 1 33.2381514783 19.5958134066 1.31973537544
4377 1 33.9171756288 21.7998663455 2.23838620891
169 1 37.2915433546 20.7210300454 0.406301074873
5037 1 35.9275332122 20.0412042233 2.33944793864
5046 1 35.8402301057 22.646656099 1.28383571184
177 1 38.8718483286 19.7206347715 2.66731310968
4882 2 37.6304333194 21.7261768341 2.36375157499
5061 1 39.4211802108 22.3605295753 3.47914516436
5055 1 38.4144746914 23.134006446 0.824496128458
343 1 2.59213141002 25.1963641791 1.39802707697
5066 1 0.160096217988 24.9301335591 1.73056276613
366 1 3.31350384194 26.7980611284 3.15616793321
358 1 1.77414469567 24.4651637834 3.56644046774
1013 1 5.80074327381 26.8493114037 3.19756391251
1014 1 5.00676583821 25.2798331112 1.48580553632
1015 1 7.45180162859 25.3198814211 1.44263235197
1030 1 6.61883150042 24.551863455 3.66599647355
359 1 4.2048732069 24.4818805963 3.68709058949
1038 1 8.24332131032 26.8557292492 3.18426123734
1685 1 10.6877475958 26.87451446 3.15831175003
1686 1 9.90697970124 25.3305121585 1.40861037405
1031 1 9.06579880605 24.5679757253 3.62055722807
1702 1 11.5053495728 24.5992644424 3.59845691869
1687 1 12.3789566351 25.4004047806 1.46957696612
2358 1 14.0190771677 24.6331995034 3.39594414368
1710 1 13.1334260687 26.9144428961 3.19535895439
2357 1 15.5707807864 26.9576285661 3.30406070271
1846 1 14.461883255 24.4830040418 0.551274446413
2359 1 18.7107043364 23.5303372219 0.40711346831
2505 2 19.4766880344 25.9226437025 0.631018882589
3046 1 18.1776083939 26.5710607078 2.41060386237
2374 2 17.766345323 24.2348521632 2.71325872357
3035 2 16.1390375552 26.1990090537 0.97555956898
3030 1 20.1096825464 24.2244507679 2.39118505647
3039 1 23.4786602562 23.4567086223 0.330367620201
2364 2 21.1968711728 23.3693912735 0.2468386566
3031 1 22.5379155563 24.2462458471 2.42775533525
3056 1 23.2937300307 26.5419286756 2.88313652063
3029 1 20.7670489366 26.5751772155 2.84233001653
3037 1 21.7529109258 25.7752848669 0.717691360727
3038 1 24.1794670624 25.782454227 0.734344762237
3697 1 25.8751501052 23.5087084808 0.328537586584
3701 1 25.7618277464 26.587230193 2.93018389978
3702 1 25.0042461603 24.2786177099 2.5041648084
3703 1 27.4663525103 24.3078947244 2.52355848328
3709 1 26.615112315 25.8124292612 0.751928233159
4369 1 30.8134037921 23.5712835039 0.308349275084
3710 1 29.0646262028 25.8320993767 0.770250192237
3711 1 28.3219732124 23.5316713704 0.332088596686
3728 1 28.2106218757 26.607250898 2.96591576975
4373 1 30.6293582082 26.6350725818 2.96851850444
4374 1 29.9351774729 24.3217974471 2.52590882208
4381 1 31.5279879956 25.8882353495 0.743352032299
4383 1 33.5441427006 23.5349538589 0.28344870636
4375 1 32.4184977102 24.4078039874 2.38908250158
4382 1 33.9998300284 26.0042430896 0.792671124145
4400 1 32.9488743495 26.7783582212 2.96062854034
5045 1 34.9220369832 24.5903117673 2.56288777437
5087 2 35.0938731734 27.1082503728 3.00589877203
5192 1 36.1170829864 24.7361354492 0.371385468419
5049 1 37.4641527338 24.2840028175 2.61746415665
5041 2 38.8801349212 26.7503298458 0.419777827508
5070 1 36.6747510505 26.6632715702 1.50464300982
5064 1 38.8058344818 26.9415977703 2.68193088861
341 2 1.0798585271 27.9075389574 3.63511948734
347 1 1.62097297793 27.5073567646 1.25525955086
337 1 1.06065765006 30.0156730278 0.863639097304
346 1 2.60007364612 29.2585799494 2.80159159384
351 1 3.42766874858 29.8425826618 0.577691293085
348 1 4.13496522053 27.5658900013 1.04057487217
1009 1 5.78775729547 29.9137187145 0.565351316011
1017 1 4.93760312784 29.1603277158 2.78516647463
1018 1 7.39384628384 29.1418250976 2.73799476533
1019 1 6.60246801026 27.6110126088 0.995945680163
1020 1 9.06805132143 27.6125289619 0.965650100599
1023 1 8.22611115166 29.9066939466 0.528063439564
1681 1 10.6864725851 29.8636645636 0.492319445322
1689 1 9.83719234405 29.1394709601 2.71706089195
1691 1 11.5470705914 27.60016488 0.92095013915
1690 1 12.257540972 29.1145074092 2.68106619223
1692 1 14.0900552786 27.4756477112 0.879532511433
1695 1 13.1869467936 29.8385925269 0.470921390805
2361 2 14.5924213769 29.1853815548 2.59211878587
2353 1 15.7862439238 29.9170321795 0.497105592882
2362 1 19.2716441052 28.7638827988 3.20665954583
3198 2 17.9013619506 28.77786311 1.03592468608
2366 1 16.8271092029 29.0333419026 3.08089091314
2367 1 18.3108641082 31.0061216597 2.07679109081
2381 1 20.1026686806 28.1698681169 1.0288999871
3057 1 23.2594940355 30.3892836824 1.56747097799
3034 1 20.8663297235 30.4505285984 1.41970306524
3054 1 21.6783488009 28.855898656 3.2743905496
3036 1 22.5089043777 28.072187521 1.14675413627
3052 1 20.1700705705 30.9299555351 3.60397533714
3055 1 24.128940779 28.8632266337 3.32432226511
3706 1 25.6828084837 30.4052683976 1.61418499764
3707 1 24.9243912071 28.1037612581 1.14583397189
3708 1 27.3624050435 28.1131672276 1.18658953644
3726 1 26.5665460791 28.8899321523 3.37716873349
3729 1 28.1226361467 30.4097115309 1.63189489111
4378 1 30.5724588788 30.4251115441 1.62490447975
4379 1 29.8038108626 28.1361103457 1.18730644369
3727 1 29.0198043103 28.9037387144 3.40192873615
4398 1 31.4952530448 28.9354589547 3.38907100564
4380 1 32.2424367603 28.2112191653 1.12527288642
4401 1 33.045589236 30.4609188805 1.58009366607
5051 1 34.8392844272 28.3431095038 1.08592387918
4399 1 33.9550850195 29.1115119862 3.32428952503
5050 1 35.5914616799 30.5644253122 1.42060132616
5206 1 36.8968738047 28.8879125194 3.01961338929
5062 1 39.2929942336 29.5234840492 2.78537512919
5195 1 37.8246059332 28.7443953553 0.829120287683
528 1 3.35184851852 33.8139051368 1.71032695571
5222 1 1.06474207095 32.6831670366 1.92262480408
508 1 2.64653637238 32.1446553292 0.0554959766503
349 2 1.4723394236 31.1800003865 3.59029111033
350 1 3.87281915211 31.4732533513 2.3455826806
1021 1 6.49938570963 31.4296977498 2.31379242716
1178 1 5.77061633759 33.7119337993 1.828519858
1179 1 4.98785529313 32.2209655381 0.093634184643
1180 1 7.37284666774 32.2041531098 0.0889003031997
1022 1 8.96008773479 31.4103179256 2.290116436
1200 1 8.18759233027 33.7003453906 1.87056225708
1693 1 11.4027449739 31.3530352313 2.26345303047
1850 2 10.5850044752 33.4782427431 1.75581430277
1851 1 9.78973746043 32.1364151345 0.0451835724586
1694 1 13.7875764663 31.4175355818 2.2166799056
1872 1 12.984285735 33.6815998315 1.77888393647
1852 1 12.2384821758 32.141719195 0.0506507888931
2523 1 14.6753335573 32.1587296956 0.0413100776737
2522 1 15.4106398719 33.7050396161 1.78195741524
2365 1 16.0903120755 31.4568871478 2.37518148319
2688 1 17.888861382 33.6312766456 1.89292239297
3180 1 19.6263115806 32.3957923381 0.583694331041
2524 1 17.0799311315 32.2130982454 0.151341653644
3200 1 21.5368258734 32.7348686884 2.19511626813
3207 1 23.1586750273 34.238423395 0.329107350868
2550 2 20.8564210952 34.5304534134 3.50284775692
3194 1 20.7789254695 34.5193634728 0.701562021301
3195 1 22.3330314688 31.987045171 0.00790579736966
3201 1 23.9966438363 32.7306077295 2.09264871153
3865 1 25.585466571 34.1962916555 0.326145901703
3872 1 26.4436505519 32.7021493191 2.08811971456
3873 1 28.8742240469 32.708371664 2.07761636827
3879 1 28.0068848982 34.2104363361 0.315644672876
4537 1 30.4121839958 34.2175991685 0.292665207236
4544 1 31.2800211856 32.716476056 2.05417665868
4545 1 33.6570698201 32.7681657857 1.92671528775
4551 1 32.7973141117 34.23348029 0.231400055077
5209 1 35.1933606899 34.2549317209 0.212998795293
5202 1 38.0411271527 31.1835033254 1.42878880518
520 1 37.893526675 32.9763740968 3.00475451743
5216 2 35.8731417867 32.8687181458 2.13573593103
5362 1 37.508461445 33.9852400089 0.351860320941
521 1 39.2532119686 34.5994036806 1.99762423025
511 2 2.93993425521 36.2173440491 1.57168246891
534 1 3.34371394855 37.5999459206 3.3484853527
510 1 1.91534494933 38.4816333818 1.01236725678
5223 1 0.959372659002 36.2677581476 0.605532529445
546 1 1.68743774599 35.158282803 3.22157081427
1181 1 5.86689527742 37.5836235716 3.2074874776
1182 1 5.1318056781 36.0530636697 1.40826080904
1183 1 7.50233782382 35.9988811051 1.42588572382
1187 1 6.61112148202 38.3071415735 0.9903143041
516 1 4.25258900099 38.4011963981 1.15636410608
1198 1 6.55513088654 35.2426986411 3.58398775887
527 1 4.188422759 35.266127544 3.56556843237
1188 2 8.88996238637 38.2126608314 0.857364821562
1206 1 8.29461641859 37.5245937936 3.14703665869
1853 2 10.7235837647 37.6806998789 3.31923969336
1854 1 9.8987745815 35.9793518944 1.49814742698
1859 1 11.3628654655 38.2819280578 0.94442995884
1870 1 11.3160876241 35.2254494523 3.4602022952
1855 2 12.3470242866 36.0114803635 1.22934563119
1860 1 13.8043718388 38.2695874251 0.815236711215
1878 1 13.0462801153 37.5074363187 3.03802889933
2526 1 14.5913939748 36.0050576073 1.32701359476
2525 1 15.4805752153 37.504081858 3.02590152739
1871 1 13.7301614908 35.1939404023 3.49289585964
2527 1 16.8538547544 35.8770461204 1.33640063044
2531 1 16.2812356021 38.2473362817 0.723038403559
2682 2 19.0153998346 36.0299108375 1.52659087164
2530 1 17.9097334096 37.4184536107 2.99150816519
2542 1 16.1560786408 35.15409268 3.55070840781
3215 1 18.6149807136 35.2267257111 3.62209771341
3199 1 22.6447062025 35.1789378172 2.46150964712
3205 2 21.837264246 36.7009768885 0.77523384766
3224 1 23.291000418 37.4046468375 2.93223541234
3197 1 20.7279862735 37.1196245046 3.13080839
3871 1 27.2931678876 34.9951489678 2.54073219693
3870 1 24.9125279929 35.008467836 2.54162499863
3206 1 24.0807063464 36.5393290899 0.784968989329
3869 1 25.7058072324 37.3195161314 2.99179727445
3877 1 26.4468113627 36.4939114065 0.806188420603
3876 1 27.2257779139 38.822199701 1.2774638485
4542 1 29.6829825783 35.0129385762 2.52102152509
3878 1 28.8339469938 36.5155669972 0.778903754367
3896 1 28.1145373424 37.3065924427 3.0018737118
4541 1 30.5233234003 37.3049208168 2.99505172765
4549 1 31.2190524463 36.5178004276 0.749330371529
4547 1 29.6464863267 38.8168988325 1.25418193692
5214 1 34.4807802281 35.0300066154 2.43648462984
4543 1 32.0770188506 35.0231862808 2.46541312853
4550 1 33.5969847966 36.4765115818 0.715447260966
4568 1 32.9276294353 37.2617027912 2.99362871502
5233 1 35.3299705379 37.2730923201 2.9666591426
5219 1 34.3580093037 38.6628919982 1.24354133457
4548 1 32.037767762 38.7933833263 1.24111594737
5215 1 36.8860884118 35.1339164172 2.49491424542
5217 2 37.6329749516 37.6024097976 2.5952867477
5213 1 35.966703098 36.5217827846 0.710152273901
5239 1 38.2623573892 36.3239464938 0.584992918007
513 1 39.02268335 38.6169244757 0.933172748596
514 1 2.78558020496 39.96767929 2.82246715664
517 1 1.70916620042 42.1940204135 2.27728979193
519 1 3.49042957559 40.728542441 0.563631409547
505 2 0.627518667884 40.0980364853 2.13779435549
518 1 4.23279996702 42.1820983507 2.37326314975
1177 1 5.93845728748 40.7051972528 0.652496669551
1185 1 5.12715286924 39.8988705233 2.79554158751
1186 1 7.50811967287 39.8238599296 2.72640324263
1189 1 6.72290050339 42.1637850506 2.37492135087
1190 1 9.14022222394 42.1338597744 2.3006331874
1191 1 8.34033137059 40.6295217507 0.57288642353
1849 2 10.7495444575 40.7163019917 0.473817885941
1857 1 9.86082354787 39.8147413958 2.64333725497
1861 1 11.5353118519 42.12941081 2.27660866894
1858 1 12.2288780512 39.7874325872 2.6257681043
1862 1 13.8743574987 42.0881487999 2.19706937645
1863 1 13.0174451713 40.5579551343 0.440125877226
2529 1 14.6240201658 39.7340833283 2.54452343655
2533 2 15.2278689058 40.4423597236 0.228676605696
2034 1 16.1192022701 41.7133170544 1.94694198468
2549 2 16.9927707601 39.4294572976 2.52199269912
3202 1 18.5055241504 41.262594044 2.22668492543
2548 2 19.9655508878 39.0816376517 2.32309753095
3204 1 22.2050348597 38.9379429457 1.28010186448
3225 1 23.1916663529 41.1630384868 1.74940805467
3222 1 20.8007526796 41.2176691503 1.66772665616
3203 1 21.6244432674 39.6931409328 3.64274460604
3875 1 24.7768300202 38.8663930504 1.30045906717
3223 1 24.0291438161 39.6414782441 3.49907006744
3874 1 25.6469165623 41.1426803506 1.74985341256
3894 1 26.4883313583 39.620614821 3.48860133757
3362 1 24.8324960333 42.6710372301 0.0149965656557
3897 1 28.0839546762 41.1201879425 1.72490379609
4546 1 30.5193742443 41.0944802111 1.70574663168
4566 1 31.3745392913 39.5948689457 3.47848402422
3895 1 28.9302281538 39.6121136243 3.47727475144
4569 1 32.9522060805 41.033560927 1.67256629328
4567 1 33.8300682694 39.4817619422 3.4945980588
5218 1 35.3395603029 40.8304082842 1.76384897636
5220 1 36.6760030457 38.9436442331 0.842224421553
5238 1 38.0566105868 41.1466906407 1.42114965809
5232 1 36.3653062671 39.4529092301 3.41946191529
17 2 0.498889274256 0.931820374825 4.18302715103
18 1 2.72155766721 0.94465805084 4.12337778289
42 1 3.50165005481 2.47298944634 5.85493277668
35 1 1.02948679846 2.5495536188 5.80414608745
531 1 1.75440231487 0.132633333415 6.33545707684
36 1 4.25180932722 0.171067120433 6.32814997958
689 1 5.11850738949 0.94178141457 4.14029464661
688 1 5.94627264859 2.44893425034 5.87814857391
690 1 7.55018467963 0.9449255165 4.11609599446
707 1 6.70212955202 0.149711191845 6.30989409171
714 1 8.38833961851 2.46082652061 5.85586309067
1360 1 10.8140390855 2.45363308655 5.80211559723
1361 1 9.97320306555 0.941941744153 4.04774452638
708 1 9.15073200285 0.150904461499 6.25890483573
1379 1 11.6114227029 0.152461189284 6.20037981652
2033 1 14.8676910628 0.882302227164 3.93101485454
1362 1 12.3994730125 0.94925280437 3.99916300077
1386 1 13.246124343 2.44649012241 5.7871933631
2036 1 15.5584347247 2.59459924299 5.59768716888
1380 1 14.0815308705 0.142108746577 6.12730760922
2694 1 18.3880810624 2.06427279298 4.39210567078
2038 1 17.7635067578 2.50045343849 6.68532436816
2704 1 19.0950907091 0.176081826544 5.96231160292
2051 2 16.5954376767 0.679939277921 6.06704480628
2534 1 20.8486816848 1.60542046009 4.46202349749
2692 1 20.116970509 2.27785421551 6.63381995418
2707 1 22.5045474857 2.26522995442 6.57670519076
2715 1 23.2859995139 1.48434133111 4.39334625594
2713 1 21.7339921202 3.86289408445 4.84033305502
2182 1 21.588436145 0.0158793267599 6.17051151626
3364 1 25.7412311932 1.43243283551 4.43100885897
3378 1 24.9051536203 2.26149814616 6.58999200123
3379 1 27.3176551655 2.23656715561 6.61263679927
3385 1 26.5391171951 3.74228670188 4.81646984184
2714 1 24.1097136619 3.80418785308 4.79575739734
3386 1 28.9863653239 3.74536808768 4.83049889625
3387 1 28.1773483745 1.46360408895 4.39242746884
4036 1 30.6519994631 1.4791980945 4.39117486116
4050 1 29.706888087 2.23369730275 6.61663665312
4057 1 31.4835427437 3.75694395389 4.80988063871
4051 1 32.0283175992 2.23560682614 6.69746732669
4059 1 33.1389087456 1.43511986164 4.26768170852
4722 2 34.1913709944 2.44925915639 7.01679595246
4058 2 33.900423542 3.72168836057 4.01975807279
4053 1 33.9429593666 0.0550773100169 6.1208010089
4708 1 35.8353825253 1.00003344824 3.9682834464
5 1 38.980752694 3.27514595359 3.76756233232
4729 1 36.5405866385 3.27907879922 3.94283814903
4725 1 37.975187163 1.45500164957 4.89230816677
4728 1 36.1279144117 1.98627311099 6.23684156624
6 1 37.9222512863 3.43785782036 6.33031835192
4731 1 37.7946004853 0.921497001167 7.36521739822
10 1 1.93425058807 7.10406274577 5.04006931872
21 1 2.70743610103 4.78287682746 5.42981965295
4751 1 1.1561291986 6.27447951554 7.26515077482
4730 1 0.279095518571 4.73741281284 5.60389455331
47 1 3.55587353598 6.26859118252 7.24075802452
29 1 4.3944359167 7.01281041362 5.02739492159
692 1 5.16456429622 4.74409725804 5.43540470098
693 1 7.60881283988 4.75268713144 5.43371477652
700 1 6.86252875317 7.04315558701 5.02390660022
691 1 6.00268761507 6.2567603208 7.21634270116
701 1 9.3113388975 7.06526428072 5.00817326967
719 1 8.43522867566 6.27975491996 7.19437157699