ITEM: TIMESTEP
30000
ITEM: NUMBER OF ATOMS
5376
ITEM: BOX BOUNDS pp pp pp
0.0 39.5600404449
0.0 42.7297273569
0.0 37.0050293879
ITEM: ATOMS id type x y z
2 1 1.3293636714 1.88098987329 2.01200599613
24 2 3.80500657801 1.51831608862 1.77963716983
4 1 2.84017952084 0.152951369819 0.134753788062
674 1 6.08989718415 1.73359180967 1.88332297302
676 1 7.68322226725 0.232902661243 0.12383557593
675 1 5.30065295108 0.226212783291 0.0741722107959
694 1 6.77740856748 3.24508933346 3.66984109244
23 1 4.28207217483 3.20470514834 3.65193620859
696 1 8.48880238168 1.74402560415 1.89257468384
1346 1 10.9129666359 1.74395467254 1.8616858488
1347 1 10.0725601206 0.244820173024 0.0809683983944
1366 1 11.7502729686 3.25972071558 3.63186738468
695 1 9.26040104385 3.26046220196 3.66032976754
1368 1 13.364830314 1.78231949266 1.86283419371
1348 1 12.4974041616 0.222136156679 0.0727421240914
2019 1 14.9150015409 0.23646969449 0.00170490404053
2018 1 15.8306975605 1.70065066902 1.77609770518
2683 1 18.5187228822 1.34468365839 1.93827380575
2023 1 16.9605282636 2.98599592751 3.39886468202
2020 1 17.3967830405 3.86235983994 1.25241379815
2181 1 19.6988708642 3.35259235192 2.39646927223
2695 1 22.338786961 3.1713345984 2.53427123392
2696 1 21.4406712363 0.916255533242 2.24943705674
2703 1 23.2292315174 2.3884488775 0.364516229783
2689 1 20.8469770916 2.47640679967 0.625462907779
2691 1 22.3149991958 0.106232117539 0.047317012554
2697 1 23.9442412574 0.807974636053 2.10831928995
3361 1 25.5873647908 2.24127691487 0.377670028865
3366 1 24.7988457325 3.10818446881 2.51943637581
3367 1 27.2162315397 2.98900433788 2.63293236996
3368 1 26.391090267 0.728512603899 2.12416136628
3369 1 28.809314412 0.697597040579 2.15514004774
3375 1 27.9879238206 2.21101634541 0.397371454568
4033 1 30.4134849798 2.17301612782 0.379323511872
4038 1 29.664315892 2.98236190206 2.61007364044
4040 1 31.2458660383 0.657554787456 2.13701253213
4039 1 32.0926921657 2.92495119636 2.50973476753
4041 1 33.692866525 0.633467344828 2.06507513722
4047 1 32.8624465886 2.13457449662 0.315301834803
4710 1 34.6060530358 2.96379238654 2.6197038787
4705 1 35.2376315151 2.11577876879 0.41502188523
5 1 39.0235372511 3.20411651692 3.69799250868
4711 1 37.3618268268 2.5541911744 1.82254893256
4712 1 36.0778418306 0.454459714076 2.03203760098
524 1 38.7017366858 0.614067121209 2.31599626515
4707 1 37.2614420678 0.763449074167 0.102717947277
5241 2 39.2544857268 1.93224979534 0.217199884951
4870 1 0.247935594661 3.95615091194 1.4203415397
165 2 2.52998020525 4.25352358204 1.75130134487
7 1 3.53412025137 5.52464332322 3.3403663174
11 1 1.95999902106 6.30863684399 1.07676133057
20 1 0.70062697364 5.47358815861 3.31143600681
185 2 0.656534354544 7.76721906526 2.86398352315
678 1 5.10090824002 3.97042025037 1.48070541186
679 1 7.59288944427 4.01666934863 1.47629479458
30 1 5.97146174143 5.51054351873 3.23505608447
12 1 4.38983635455 6.32702901227 1.13439817627
683 1 6.80515354373 6.29801348515 1.05120343543
1350 1 10.0659883065 4.02411628924 1.45370904192
684 1 9.24698986715 6.30315077933 1.02344681455
702 1 8.43026626073 5.53920547233 3.23647770729
1349 1 10.8778907158 5.54092892846 3.21821348307
1355 1 11.6986201986 6.3007930174 0.999174551596
2022 1 14.9811442277 4.00076306004 1.41078076033
1351 1 12.5332718647 4.03306561998 1.43971210695
1374 1 13.3245299033 5.52079956279 3.22256594105
1356 1 14.1724436472 6.27900331769 0.988255017246
2025 1 14.9029064538 7.7431193605 2.78619924219
2021 1 15.7582661676 5.49828977791 3.17902533839
2167 1 16.7843430165 6.286340202 1.08033967781
2845 1 19.3655412673 5.06486662873 0.848286649478
2183 1 18.1304262842 5.60725804955 3.14375892795
2028 1 19.097362253 7.2359624884 1.65282128523
2693 1 20.7343536767 5.33067080503 3.01363601764
2700 2 21.3314532205 6.91822859199 1.51790047969
2701 1 21.7951795043 4.72338624211 0.778937345892
2720 1 23.1452646676 5.47012998402 2.89045736946
2718 1 21.3638941142 7.70109812552 3.59918625105
2702 1 24.1476411352 4.62524785409 0.743495498661
3365 1 25.5750891379 5.35024613651 3.03637118041
3371 2 24.7566589358 7.02719647753 1.4557562234
3372 1 27.1564247728 6.81619769438 1.30645222316
3373 2 26.5563680433 4.45392707103 0.926545554462
3390 1 26.421770206 7.62230830816 3.49730825926
2719 1 23.9866036214 7.68555335659 3.61239993377
3374 1 28.8270005382 4.49554386938 0.845404983491
3391 1 28.8603049918 7.60700763964 3.49908444623
3392 1 28.0103836338 5.3133214387 3.0434769838
4037 1 30.4363365504 5.29709799614 2.99991375596
4043 1 29.5573549935 6.80912079356 1.28942943913
4045 1 31.2083999623 4.44147796427 0.810498932509
4062 1 31.2917117297 7.53815200552 3.50076766606
4044 1 31.9582227988 6.67290884173 1.27036264401
4046 1 33.5987267621 4.43692524415 0.786352245783
4064 1 32.9158667705 5.18180593647 2.98464816846
4715 1 34.3193847656 6.78530674482 1.10698230648
4709 1 35.5865614813 5.6009085362 2.68821930362
4063 1 33.7144901794 7.33593638916 3.52785005761
9 1 39.1604497249 6.52486222059 1.20324554161
4717 2 35.8063412625 4.3554083557 0.771493123275
4736 1 37.8740795159 4.88849487871 2.24944285056
4716 1 36.8398115863 6.48608552981 0.734139894266
4734 1 37.8870824056 7.22572462134 3.24182710468
13 1 2.86421964701 7.83315318978 2.83891654618
15 1 3.60186433793 8.65203237705 0.690272265496
172 1 2.75488023466 10.8871134621 0.19893248365
186 1 1.87156733775 10.059046768 2.37564097492
1 1 1.12161604294 8.53186170512 0.559964379035
4868 2 0.458288177324 10.7529106009 0.126428010118
677 1 5.23812775403 7.83503530286 2.8618285994
682 1 7.64310180156 7.82830073376 2.81586569031
681 1 4.34683636741 10.1290138654 2.42929013543
673 1 6.00727040085 8.59791183973 0.631527748953
685 1 6.79056997723 10.115339943 2.3921605877
844 1 7.59370783043 10.8711005567 0.169006762172
843 1 5.1638609859 10.8816245017 0.19591416766
1353 1 10.0647385024 7.82853980762 2.79690663594
686 1 9.21067380764 10.107755251 2.36055290672
687 1 8.41708946031 8.5866626468 0.591106349395
1345 1 10.8222574476 8.56960352524 0.5468751844
1357 1 11.5944227714 10.0860146647 2.30111088995
1515 1 10.0324860247 10.8656231781 0.128824807372
1354 1 12.4826399626 7.81384585721 2.78284426722
1358 1 13.9291984538 9.94188521409 2.24646770899
1359 1 13.2106908618 8.53153257478 0.497387997672
1516 1 12.4805819842 10.8841887583 0.0828261952202
2029 1 15.6022482423 8.44522751883 0.641643091866
2187 1 14.9028531166 10.8215987634 0.0532083817637
2026 1 17.196753723 8.22503901091 2.89741269615
2208 1 17.7982927574 9.13160107968 0.677986173716
2699 1 16.1880570714 10.4033900713 2.07648877611
2202 2 18.4392814892 10.461210049 2.46802151105
2698 1 20.6096811755 9.30857318676 1.71353571341
2721 1 23.0653291726 9.03211914238 1.73016070011
2864 1 21.646994538 11.4628799539 2.19907685544
2030 1 19.8493514922 10.818944632 0.0777360084588
2859 1 22.399919306 10.7224799527 0.0307759203615
2865 1 24.0662885174 11.3886294538 2.16396974203
3370 1 25.5914651622 9.17312139661 1.75154796499
3536 1 26.5490049956 11.4149432147 2.15978084421
3393 1 28.0334139809 9.10838934379 1.73427779415
3537 1 29.044362487 11.4108044591 2.14980872037
4042 1 30.4455331044 9.13702706121 1.75361207994
4208 1 31.6930545327 11.5424254465 2.21255645212
4065 2 32.664367131 8.79827749192 1.67090497172
4209 2 33.9849894392 10.9769131394 3.44369327544
4726 1 35.9030828492 8.12377347477 2.36032701735
4737 2 37.7243150919 9.57975310336 2.47010420103
4880 1 35.8478297744 10.8266688557 2.26981602943
171 1 38.0636933707 11.6259490859 1.42468645312
192 1 3.52952315776 12.3891125159 1.92296220136
319 1 2.77728711937 14.6692767189 1.48431741835
5027 2 0.58181021461 14.6764965267 1.59352331294
170 1 1.01392057997 12.2961743913 1.90040032053
184 1 1.92903204481 13.8530005901 3.64766599839
842 1 5.9575439084 12.3956017919 1.94236392638
846 1 5.10847601221 14.6526248179 1.48982608243
847 1 7.50865388846 14.6290556505 1.50963359026
191 1 4.31160675348 13.9662232973 3.67350596956
864 1 8.40422591303 12.3828544982 1.93692968834
1514 1 10.8652919867 12.3885842413 1.9026855654
1518 1 9.90873392524 14.6641708047 1.4771505956
1519 1 12.2544057231 14.4982841624 1.49666838495
1536 1 13.4216265354 12.3481627971 1.85760959315
2186 1 14.4129317608 15.2522845141 1.33910823733
1535 1 14.3985256781 13.8258818116 3.43204826983
2226 1 16.0107112157 13.2399065974 1.17795607078
2350 2 18.4543733937 12.830071466 0.512082544888
2196 1 19.3332574064 15.0578751841 0.924604172738
2225 2 17.0023960992 13.5752755258 3.51581096713
2206 2 16.8308437714 15.4496904172 0.713172729293
2191 2 20.2671694606 13.4673568418 2.83008225367
2862 1 20.8563249667 13.040260323 0.467324837815
2863 1 22.5879935545 13.6797719485 2.63783048213
2869 2 21.9557169928 15.3023142388 0.906501771685
2871 1 23.2911622341 12.9616786994 0.424794894587
2870 1 24.2625997565 15.182545859 0.828455758015
3529 1 25.7430496625 12.9134890302 0.395051868643
3534 1 25.0013304313 13.6693878365 2.60457762053
3541 1 26.6620743464 15.1945561351 0.811661207065
3535 1 27.4346404396 13.6998762414 2.58507169847
3542 1 29.1048988002 15.2064387309 0.779277402762
3543 1 28.2038549269 12.9059593888 0.377683477512
4201 1 30.6839240548 12.8736621683 0.354528441085
4206 1 29.8574777362 13.7185600392 2.53658961354
4213 1 31.5235332981 15.1762625409 0.459581126388
4207 1 32.1720820695 13.975429364 2.4325283284
4226 1 34.4462807915 12.9484767907 2.2678532256
4215 1 33.1672440411 13.0585881598 0.252970378538
4214 1 34.0065499376 15.3418518923 0.977011919468
4898 1 36.0543402785 12.8933762016 0.536060865908
173 1 39.0749457473 13.5476132761 3.44982769681
4904 1 36.8511293923 13.2959563656 2.9048837863
4878 1 36.3687081615 15.1366833701 1.17857818681
318 1 38.4520218812 13.7738883574 0.59764290201
178 1 1.8950763706 18.6536245835 2.82933397671
198 1 3.46726795185 16.3080334215 3.25331665436
310 1 1.71510566484 16.8891176022 1.02358987393
183 1 3.25234118354 19.1428952891 0.680860158293
179 1 0.8466830534 19.2368607482 0.551645984221
4896 1 1.08741049517 16.1299425496 3.35013837069
180 2 4.14432965915 16.8638990493 0.885616029105
845 2 5.99558493126 16.0506526894 3.29769646281
849 1 4.79647822452 18.3467511525 2.86221450607
850 1 7.31484496143 18.4293209787 2.76759285213
851 1 6.62361686138 16.847606154 1.09198080344
841 1 5.65841246267 18.9887148551 0.723589782183
852 1 9.07330229144 16.9504748173 1.04875653481
870 1 8.2999418649 16.1808252639 3.26129965987
1517 1 10.7082938578 16.1805734586 3.24481234399
1521 1 9.75864106073 18.443549987 2.83377505499
855 1 8.17332122885 19.2742579371 0.466035879282
1513 1 10.5912126243 19.1472234151 0.70041600162
1523 1 11.6462998137 16.8822054233 1.04822327262
2190 2 14.0406533041 17.2742754118 0.228259365814
1522 1 12.1829655079 18.4126893797 2.93542836784
2193 1 13.1623059474 16.0454839365 3.31582955654
2189 1 14.8067462101 17.8798320464 2.55593992162
1524 1 12.9222855023 19.2245494886 0.827077094193
2207 1 16.0079232364 15.792052146 3.05650849252
2194 2 18.6642517227 16.162116298 3.13954950767
2199 1 17.6634608566 17.3826952106 1.48674717475
2867 1 19.5474390505 18.2140142778 3.37265294437
2215 1 17.1314616313 18.0913611894 3.69428154716
3007 1 20.1870746371 17.3092979169 1.29296300894
2888 1 23.4489143282 15.9353993095 3.00846407616
2868 1 22.6458522942 17.4718426018 1.28306406105
2886 1 21.8999274614 18.1878880827 3.44923731005
2861 1 21.0079000953 15.8695727936 3.0406013951
2887 1 24.3281386301 18.2095401113 3.44862287205
3533 1 25.8860424407 15.963085342 3.02427369086
3539 1 25.090736789 17.4608384711 1.25942236115
3540 1 27.5156842141 17.4793367807 1.23758398237
3558 1 26.780845714 18.2323175883 3.46319168081
3559 1 29.2787728238 18.2326877463 3.41055196672
3560 1 28.3305038943 15.9877074158 3.01299456832
4205 1 30.7765352056 16.0037247365 2.9774194103
4211 1 29.9451050777 17.4789178502 1.20375463278
321 1 35.5341796673 15.7141179884 3.21796195016
4230 1 31.8290633302 18.2911794003 3.43430517632
4212 1 32.2954667118 17.4413768535 1.06205131344
4232 2 33.128788039 16.2753583833 3.02164265314
4883 1 34.5962175379 17.6358845665 1.93033923685
4886 1 38.1346893669 15.6096207049 2.9548012959
190 2 39.2993910712 17.7192668271 2.05101504659
4885 1 38.4134784446 16.1549326608 0.461124962137
4884 1 36.9489012078 17.6315137817 2.39450439902
5048 2 35.801395944 19.0219197165 0.690973268778
325 1 38.0312130611 18.5120693521 0.3521259808
181 1 1.66265186241 20.9032638303 2.29073210823
360 1 3.52288985005 23.0036201295 1.88672519355
340 1 2.77426702377 21.4913924381 0.10450268771
353 2 1.2529968117 23.1122869134 1.77798525377
4905 1 0.440244628412 21.5319920021 0.187696607448
182 1 4.13393711138 20.6550191134 2.33115132451
853 1 6.56463340648 20.6827353072 2.30275545833
1010 1 5.89501528601 23.009749971 1.88573930517
1012 2 7.61570601055 21.7872672136 0.258440668906
1011 1 5.17184576186 21.3819398861 0.155230677849
854 1 8.99313180513 20.7368568323 2.33251744756
1032 1 8.33308710915 23.1043185537 1.97330958727
1683 1 9.87872453517 21.5458034245 0.183240058989
1682 1 10.7821513428 23.0601554828 1.9553403131
1525 1 11.4229778556 20.7154206094 2.43202031251
1684 1 12.1808884321 21.3748908091 0.259886706846
2369 1 13.90695173 20.6812533045 2.50021953339
1704 1 13.1881521802 23.0235768627 2.03048804554
1527 1 14.6566688422 21.6590201857 0.475056450508
2354 1 15.9294358229 22.289117825 2.71477414252
2197 1 16.2001289539 19.7840457727 1.99554743244
3026 1 18.5654919907 19.6284468119 1.71383919639
2376 2 19.4343504326 21.7026135649 2.15722332348
2517 2 16.4295335261 22.9722129703 0.404399646124
2356 1 17.5565499832 21.1163804785 0.0752003233611
2866 1 21.0163267308 19.6472500038 1.69523782722
2889 1 23.4583790216 19.7265718596 1.70978603794
3032 1 21.8200943679 21.9590624894 2.13511545731
3012 1 20.1287312202 21.162159159 0.00969677272046
3033 1 24.2538014576 21.9785305098 2.14415872351
3538 1 25.9062062916 19.7343343643 1.69892135634
3704 1 26.683266307 22.0212939462 2.12762165383
4210 1 30.8017601258 19.7524499953 1.67048539722
3561 1 28.3498105781 19.7546338649 1.67162698929
3705 1 29.1316992127 22.0426015291 2.12420924397
4376 1 31.5727281939 22.0629390731 2.1102845153
4231 2 34.0907404532 19.5284336997 3.43444862772
4233 1 33.2447811619 19.7539571753 1.41244472582
4377 1 33.9162518943 21.8864726848 2.37551257361
169 1 37.6129456058 20.9194516969 0.528923119579
5037 1 36.0016588741 20.4060020424 2.45156127943
5046 1 35.8265046006 22.7921556242 1.37619561399
177 1 38.8071889137 20.0203529368 2.6243896002
4882 2 37.6053476508 22.1728213044 2.53918322197
5061 1 39.4438688823 22.8023209275 3.61873595241
343 1 2.70321717328 25.192357984 1.28840236568
5066 1 0.242502568252 25.2548232216 1.76434860249
366 1 3.39002077699 26.7637719193 3.1668598269
341 2 1.10634990106 27.1401127434 3.41230213478
358 1 1.83936788155 24.7331136067 3.54170371787
1013 1 5.780528868 26.8500742192 3.23737647455
1014 1 5.08117569802 25.2952181794 1.4536489463
1015 1 7.5038327194 25.3588262216 1.45931173326
1030 1 6.63100175493 24.5588019644 3.66843127076
359 1 4.20157135323 24.5535312929 3.6923768518
1038 1 8.21338042066 26.8647254147 3.22378465004
1685 1 10.6463424174 26.8306337398 3.23187051615
1686 1 9.95931434547 25.3240732768 1.46789027444
1031 1 9.12428715132 24.5990597036 3.68625166699
1687 1 12.3976963572 25.3484994549 1.43878271892
2358 1 14.470923708 25.0466536611 2.72596153949
1710 1 13.0240508823 26.8406932544 3.29833365077
2357 1 15.6550192461 27.1043268774 3.64212695323
1846 1 14.5422569231 24.4459995454 0.134339934565
2359 1 18.7240810815 23.5457873421 0.387013065862
2505 2 19.4128947916 25.9114591628 0.661753440477
3046 1 18.2377123988 26.6885134827 2.67182426832
2374 2 17.8122448995 24.1592355516 2.7249902897
3035 2 16.0226929242 26.1132232581 1.34337177093
3030 1 20.099124984 24.223697335 2.41618060058
3039 1 23.4815634285 23.4702749892 0.399934069023
2364 2 21.2289475005 23.3853648243 0.260598354084
3031 1 22.5166459899 24.2598066399 2.50432971685
3056 1 23.2730150455 26.5416466007 2.97253956462
3029 1 20.7923508488 26.5429887403 2.84862350855
3037 1 21.7472527287 25.7524338323 0.744136286489
3038 1 24.1840954391 25.758509387 0.798410165178
3697 1 25.875517007 23.5095325401 0.366311393963
3701 1 25.7399412805 26.5861376282 3.00922133819
3702 1 24.9811830582 24.2790705958 2.55996994476
3703 1 27.4369384946 24.3181520041 2.57461167037
3709 1 26.6025510061 25.8129432318 0.824578593701
4369 1 30.8178827757 23.5535552043 0.39161129918
3710 1 29.0508988723 25.8464561358 0.878226284214
3711 1 28.3105796483 23.5460861956 0.370756768073
3728 1 28.2046017237 26.6152550711 3.05564584958
4373 1 30.6672613725 26.6527438236 3.03287487316
4374 1 29.8891455511 24.345328016 2.58587184159
4381 1 31.5095268268 25.8691369002 0.803695752569
4383 1 33.4522690715 23.5755001784 0.325183584762
4375 1 32.3209874714 24.3709313008 2.58498313246
4382 1 33.9139748005 26.0359202321 0.766234658118
4400 1 33.1100133907 26.7375431218 3.05026932409
5045 1 34.630843669 24.4497123616 2.55773984485
5087 1 35.4721845088 26.6270135182 2.79346877995
5192 1 36.0324994985 24.987935413 0.482669543492
5055 1 38.5003318719 23.3590552985 0.905826009638
5049 1 37.4378817426 24.8050885796 2.43535850434
5041 2 39.0930909378 27.1504602028 0.423662406902
5070 1 36.7587264834 27.1326815559 0.804684956099
347 1 1.80822762098 27.4981533267 1.15046767422
337 1 1.00899740216 30.4152898189 1.31861974316
346 1 2.41970578772 29.1271006788 2.85928472969
351 1 3.25856588368 29.8477866734 0.495593535551
348 1 4.20916654088 27.585054758 0.998752396054
1009 1 5.74574758248 29.9368238657 0.555921010311
1017 1 4.8682891752 29.16173101 2.74532868314
1018 1 7.34947999913 29.1481845494 2.7560808639
1019 1 6.63783424482 27.6298812571 1.00177900662
1020 1 9.10100103063 27.6075259359 0.998624875249
1023 1 8.22755083882 29.9077410064 0.553941441074
1681 1 10.70143614 29.8637877498 0.531680109497
1689 1 9.79948650453 29.1336293575 2.75431041371
1691 1 11.5805172826 27.5932063591 0.985323125187
1690 1 12.2125878584 29.1059502256 2.74825252093
1692 1 14.1244465751 27.4413086613 1.03022663344
1695 1 13.217302982 29.8359016101 0.541443984926
2361 1 14.5352343685 29.1959314665 2.6999840314
2353 1 15.7972689643 29.8991356425 0.547660104872
2362 1 19.2250616276 28.872502179 3.2466360224
3198 2 17.8996866287 28.6956034038 1.05348283163
2366 1 16.8294225038 29.2647008508 2.93450800506
2367 1 18.3601977342 30.9785105337 2.02719733683
2381 1 20.0976701761 28.1504154364 1.09179182545
3057 1 23.2633964662 30.353647834 1.65131441709
3034 1 20.8710954183 30.418754935 1.51210865258
3054 1 21.6187081803 28.8354610122 3.37800810523
3036 1 22.4941427701 28.0443119686 1.22944408683
3052 1 20.2489443953 30.9568919565 3.69102513732
3055 1 24.0850786819 28.8485202106 3.4086021602
3706 1 25.6805586576 30.3834525512 1.70306572142
3707 1 24.9102849264 28.0797879461 1.22528997295
3708 1 27.3249712134 28.1337141949 1.34340509992
3726 1 26.5271738291 28.891641238 3.48944428976
3729 1 28.1191570368 30.4176469039 1.72861345081
4378 1 30.5656191786 30.444493842 1.73238644767
4379 1 29.7880405682 28.1530147284 1.27647595967
3727 1 28.9978904301 28.9130796863 3.48791496573
4398 1 31.478901053 28.9545492916 3.47822049801
4380 1 32.2188430474 28.1906831013 1.24631872334
4401 1 33.0309771923 30.4974076354 1.69865584864
5051 1 34.6126893384 28.3299278417 1.14429317616
4399 1 33.9932150757 29.0348697257 3.40576093338
5050 1 35.5592572292 30.6457141292 1.73010222339
5064 1 38.4994179642 27.2320662237 2.54036352124
5206 1 36.5031166391 28.7399904128 2.56628619696
5202 1 38.1621941736 29.4986871276 1.06955639352
5062 1 39.0534239909 29.3599180324 3.42603348207
349 1 1.20959947323 31.1089578381 3.56472827525
528 1 3.42162418453 33.850048588 1.73880824586
5222 1 1.41151785774 32.8040456111 2.04471212045
350 1 3.8212369337 31.424401123 2.28668588815
5052 1 0.00343820099921 32.8966943747 0.271031353481
508 1 2.58637358664 32.1265952017 0.0087730173155
1021 1 6.48963480039 31.4394847255 2.30131170933
1178 1 5.79793528518 33.7217126346 1.79782826301
1179 1 4.95562584225 32.248048541 0.0649190901852
1180 1 7.38032971116 32.2107236496 0.0916641400201
1022 1 8.96288307983 31.4244543221 2.29563571061
1200 1 8.21636416112 33.7272287618 1.83857213156
1693 1 11.4096843301 31.3617187061 2.29446139247
1850 2 10.6003142781 33.4944840706 1.75388132583
1851 1 9.81355762704 32.1419560471 0.0538375767384
1694 1 13.7946616938 31.4490492328 2.26044332909
1872 1 12.9642158888 33.7145470216 1.79865847425
1852 1 12.2675016733 32.1457675186 0.0779754804222
2523 1 14.7129217729 32.1685269728 0.0762632796425
2522 1 15.3506484412 33.7666460053 1.82674023667
2365 1 16.1248588871 31.5803857738 2.35280173044
2688 1 17.7195964352 33.6862645058 1.97216250314
3180 1 19.6286753104 32.3804136387 0.689241836059
2524 1 17.1388607401 32.2220069119 0.167951785818
3217 1 19.2999427666 32.9855432332 3.64036160348
3200 1 21.5741681946 32.7092712173 2.21384180096
3207 1 23.2807814822 34.0353666069 0.327586321682
2550 2 20.8661114979 34.5662342451 3.59330027047
3194 2 21.0217339116 34.1238296375 0.256864089669
3195 1 22.3343931238 31.840695753 0.0197644324308
3201 1 24.0122215595 32.6843966939 2.18143304169
3865 1 25.6210855073 34.1896097016 0.389599091858
3872 1 26.4448588465 32.6892431897 2.15987104331
3873 1 28.8761833865 32.7120035608 2.16880788164
3879 1 28.0261680335 34.2081492703 0.39972545503
4537 1 30.4462302958 34.2401514032 0.40101845873
4544 1 31.3009873412 32.7311667152 2.16768046027
4545 1 33.6987066683 32.7994030934 2.11204110346
4551 1 32.8713476337 34.2741652736 0.376145000217
5209 1 35.3236878569 34.3053703737 0.368422943162
520 1 38.4014676038 31.8245946816 2.03027027166
5216 2 36.0822443681 32.8478345836 2.12203245675
5362 1 37.7774910294 34.3818888071 0.306965835119
521 1 39.1596573092 34.3824475888 2.27544227401
511 2 2.90300767781 36.1991763916 1.67960307895
534 1 3.35303569008 37.6372400264 3.39903603717
510 1 1.83787877354 38.2720981782 1.17044074627
5223 1 1.09534235081 35.2953591959 0.664558005165
546 1 1.74826682561 35.0227049951 3.47307595629
1181 1 5.87460038338 37.6053034468 3.24432566095
1182 1 5.11706090761 36.0493777841 1.45009889315
1183 1 7.51881051326 36.0255246512 1.41827677377
1187 1 6.65138586303 38.316011427 1.00913864708
516 1 4.26478470353 38.3617770598 1.19334889023
1198 1 6.56352932339 35.2783566969 3.55353098855
527 1 4.1926567859 35.3068346187 3.65866768071
1188 2 8.94984530045 38.2345633583 0.84467692464
1206 1 8.32246155419 37.5521705632 3.13300121935
1853 2 10.7612521798 37.7157764514 3.33635158505
1854 1 9.92106876895 36.0036924037 1.49700438294
1859 1 11.4233242623 38.3287259469 0.967176134127
1870 1 11.3282191777 35.249272345 3.46577011832
1199 2 8.85610192844 35.2129354416 3.69494279238
1855 2 12.3541375232 36.0495560786 1.23827089792
1860 1 13.8581514923 38.3150904097 0.84320361641
1878 1 13.0725673794 37.5511587415 3.07053846636
2526 1 14.5816321281 36.0456666378 1.35285963221
2525 1 15.4756131618 37.5563780052 3.04334520426
1871 1 13.7294487977 35.2184006343 3.51894236884
2527 1 16.8294340044 35.9529027244 1.39807355243
2531 1 16.3310405327 38.3160374911 0.709815230671
2682 2 18.9738619597 36.0881289386 1.61169807185
2530 1 17.884977552 37.5366517927 3.02978795334
2542 1 16.1281503723 35.1995927533 3.62050103696
3199 1 22.5318110189 35.1803697093 2.32906167494
3205 2 21.7644870224 37.0223305902 0.787066782769
3224 1 23.2214574201 37.4195919512 2.95057144899
3197 1 20.7041834568 37.1437342065 3.18381015755
3871 1 27.2399748726 34.9927180164 2.59356954815
3870 1 24.8246467743 35.0003057154 2.57311716656
3206 1 23.9997708105 36.5218944568 0.807537426831
3869 1 25.6241151111 37.3119225517 3.02451090648
3877 1 26.3839820767 36.5071526053 0.844138291425
3876 1 27.1447743271 38.824389274 1.29807189504
4542 1 29.6550441973 35.0045847319 2.59796656013
3878 1 28.7950249787 36.5180120535 0.837823347511
3896 1 28.0253454888 37.2980020461 3.03665966987
4541 1 30.4249167716 37.2925565759 3.03764926062
4549 1 31.2144311289 36.5329826126 0.832837239477
4547 1 29.5533324794 38.8253002568 1.2814863445
4543 1 32.0624281838 35.0149145987 2.57844911823
5214 1 34.476829499 35.0555495198 2.54362902128
4550 1 33.6353879244 36.5245263936 0.807773759308
4568 1 32.8241657835 37.2653308164 3.01859044485
5233 1 35.2151006546 37.2998512073 2.98324158725
5219 1 34.2850088401 38.7501029971 1.25205377127
4548 1 31.9400158132 38.8275771149 1.26785903102
5215 1 36.882943746 35.1919986549 2.52459105875
5217 2 37.5096553496 37.5926695737 2.71256507682
5213 1 36.0890320898 36.6046051006 0.793326893285
5239 1 38.5601661526 36.6064187336 0.807819031969
514 1 2.92348066095 40.0652941943 2.76307774192
517 1 2.10344869124 42.3868504086 2.36596375621
519 1 3.60548757053 40.6107935352 0.535744985013
515 1 1.29622599608 40.5925555836 1.0985072383
505 1 0.20207340488 41.2737810838 3.0751967093
3 1 0.386446896421 42.5764013305 0.236479288744
518 1 4.57764907491 42.1576993933 2.16596220444
1177 1 6.02099335037 40.6898993163 0.67174991896
1185 1 5.2236809419 39.8667900185 2.85561964047
1186 1 7.59029954361 39.8437258197 2.73034351946
1189 1 6.95914476812 42.1823841412 2.32704528098
1190 1 9.30773791087 42.1649466195 2.27823457497
1191 1 8.43800301357 40.6474703619 0.566405144424
1849 2 10.878780317 40.7520001811 0.489868426822
1857 1 9.94761815586 39.8448054342 2.64081572024
1861 1 11.6836890597 42.1890587769 2.27707186548
1858 1 12.311964462 39.8572156793 2.67154878378
1862 1 14.0665493271 42.2077077905 2.20949278616
1863 1 13.2293036656 40.6233284273 0.501232309598
2529 1 14.6381404727 39.8770212999 2.6080124292
2533 1 15.5951633678 40.6745625275 0.366887876381
2034 1 16.4435265591 42.1577029524 2.08512238347
2549 2 16.7983705026 39.6645724747 2.4232847418
3202 2 18.6765526098 41.9107648663 1.38900050409
2548 2 19.8611969441 39.0760164818 2.4308961835
3204 1 22.1835950548 39.0827011934 1.35395730844
3225 1 23.1414572607 41.2692618035 1.78846196551
3222 1 20.7908081487 41.2379761398 1.69932008798
3203 1 21.5370533822 39.7456462518 3.67360947928
3220 1 19.9119879237 42.3402881456 3.68492992083
3875 1 24.7281061049 38.8766063193 1.33527541392
3223 1 23.9414832142 39.6878034067 3.51725906007
3874 1 25.5451100284 41.1718931406 1.74727491578
3894 1 26.3719514091 39.6341192835 3.49537062241
3897 1 27.9533389776 41.1344053162 1.72941676952
4546 1 30.3591184111 41.1196794909 1.73268887155
4566 1 31.1790152292 39.57978651 3.48550869052
3895 1 28.7799879351 39.6056455526 3.49189459313
4569 1 32.7845713487 41.1159594508 1.72698918008
4567 1 33.564993416 39.5110254876 3.44973515727
5218 1 35.157889474 40.9453352283 1.67237630577
513 1 39.121112585 38.9318997607 1.39741449369
5220 1 36.6949976081 39.037002371 1.02047637053
5238 1 38.0294908939 41.147319121 1.48879300709
5232 1 35.9433041707 39.5688135043 3.40875736028
5237 1 36.911098074 41.7437891407 3.68885338709
5234 1 38.2227488594 39.6444399334 3.56987676565
17 2 0.602403180897 0.921027795767 4.01369491226
22 1 1.77652275609 3.33381544108 3.93920062364
18 1 2.84884626391 1.13119532414 4.09293059429
42 1 3.48093684591 2.46029272925 5.89587082041
35 1 0.609087618952 2.10521356145 5.96007460315
36 1 4.2512427905 0.143442750549 6.2253052392
689 1 5.24302034251 0.983363573371 4.06186414978
688 1 5.94509927067 2.44714521556 5.85648136081
690 1 7.64264845486 0.968280985753 4.09495828866
707 1 6.77338588176 0.196291690619 6.28582411792
714 1 8.40289240135 2.48075926723 5.85682826589
1360 1 10.8281467144 2.48673888663 5.82127826057
1361 1 10.0722843251 0.967865791596 4.05180369849
708 1 9.21222730626 0.183892716634 6.24863960886
1379 1 11.6437647865 0.195179480452 6.21093840547
1367 1 14.3592105737 3.34399683675 3.70254808272
2033 1 14.9346481346 0.953647729337 3.96340977575
1362 1 12.5130394001 0.970305943577 4.02367913729
1386 1 13.235690795 2.48375140828 5.76973922625
2036 1 15.5619768564 2.53242590549 5.72995138905
1380 1 14.0604810568 0.205057059006 6.1888530993
2058 1 17.2762887622 0.695493987026 4.0849248975
2694 1 19.3025875921 1.92219423701 4.11674609244
2038 1 17.8231538683 2.36204564729 5.98328431678
2704 1 19.0861423655 0.182508185832 5.93079041452
2051 2 16.3800462315 0.309109002488 6.25749060235
2534 1 21.3654720767 1.28903021492 4.6386204197
2692 1 20.0666783636 2.31289723469 6.4506854454
2707 1 22.4417349661 2.30702650274 6.56418444497
2715 2 23.4392600155 1.68004739645 4.21736282304
2713 1 21.5233588243 3.75967950195 4.67925622244
3364 1 25.6684007031 1.55629231851 4.32697568128
3378 1 24.8037451533 2.33403109872 6.51859392954
3379 1 27.2163009617 2.29135342793 6.55044902118
3385 1 26.4142416691 3.84959255979 4.79468931005
2709 1 23.8721041681 0.0913148350237 6.08115521398
3380 1 26.3695217746 0.0195591593187 6.12106027508
3386 1 28.789801605 3.78149355853 4.79813225258
3387 1 28.0210730134 1.48209106224 4.3724469079
4036 1 30.3931569896 1.42112908788 4.35353619523
4050 1 29.6601320234 2.26484077623 6.55350672321
4057 1 31.1088100205 3.75004114276 4.79142892016
4051 1 32.096247421 2.28506275377 6.53902266104
4059 1 32.7679432658 1.34253620004 4.22482972548
4058 2 33.2604713172 3.61155671433 4.61032684731
4708 2 35.1383594994 0.989641846461 4.20591620654
4053 1 33.776994562 0.0322520172166 6.10845872694
4722 2 34.3019727944 2.24602907782 7.30502568876
4729 2 36.6623597134 3.60344466242 3.85436501101
4725 1 37.612100264 1.39094613635 4.33278025849
4728 1 35.9954597174 2.14292678659 5.97337645817
6 1 37.8784139108 3.36571162733 6.02427581391
4731 1 37.9174112067 1.09519988728 7.07542714322
10 1 2.06654331063 6.93418380253 4.99348714013
21 1 2.77975437852 4.74693380177 5.53282423639
4751 1 1.1037751328 6.09401799277 7.30558594253
4730 1 0.37892543253 4.54945438557 5.59786444208
47 1 3.54266098723 6.22106379681 7.28563858123
29 1 4.43891688223 7.02578039479 5.06903975467
692 1 5.18235276751 4.71862384624 5.42791499026
693 1 7.61324656746 4.76056426339 5.43432738221
700 1 6.83716670368 7.04420441466 5.02112412919
691 1 5.98688959874 6.24887513392 7.22249485864
701 1 9.25753930354 7.06949812094 5.01687866574
719 1 8.43043453351 6.28041060698 7.21627548917
1363 1 10.8596489514 6.30263338213 7.22096527781