ITEM: TIMESTEP
0
ITEM: NUMBER OF ATOMS
5376
ITEM: BOX BOUNDS pp pp pp
0.0 39.5600404449
0.0 42.7297273569
0.0 37.0050293879
ITEM: ATOMS id type x y z
2 1 1.00634937863 1.79939079721 1.97780699464
24 1 3.45180669272 1.72197908082 1.99125060671
4 1 2.6819845738 0.150580651476 0.288841322529
22 1 1.95093363555 3.27077835394 3.67668692939
674 1 5.86039685633 1.66561540977 1.88488829626
694 2 6.75157472094 3.14077915383 3.57674213363
676 1 7.49732740305 0.0906271594315 0.138433408645
675 1 5.07607743816 0.0789412946131 0.174314521363
23 1 4.33277370567 3.30324684039 3.698041591
696 1 8.28958811552 1.66005376017 1.88776877131
1346 1 10.7083579185 1.66563805755 1.88939824496
695 1 9.1174990007 3.21499314946 3.64494678443
1347 1 9.93520449693 0.0978298938432 0.121404328202
1366 1 11.5833224625 3.20885080714 3.64541864757
1368 1 13.1162794839 1.63986450854 1.84404156875
1348 1 12.4073790824 0.0856982174915 0.102440715449
2018 1 15.5378253414 1.73816518577 1.79488304326
1367 1 14.2110749348 2.99596601269 3.55843128881
2019 1 15.0143363738 0.0354295915254 0.106833846351
2020 2 19.1277372444 0.819099507549 1.29005506073
2040 1 20.1421414458 2.99484184107 2.57093365051
2695 1 22.4316661153 3.00030901732 2.56868394959
2696 1 21.5610952622 0.592851094238 2.15413902114
2703 1 23.2396822771 2.15297505911 0.43488542253
2689 1 20.7520478868 2.1740484418 0.324878713178
2697 1 24.0538393197 0.620197228934 2.13288526341
3361 1 25.6961115883 2.15506791029 0.433658471923
3366 1 24.8939894182 2.93831099431 2.62729815428
3367 1 27.3354482255 2.92921534011 2.62357941184
3368 1 26.5103880952 0.625579571379 2.16524275842
3369 1 28.9429847302 0.623724606915 2.17030597208
3375 1 28.1315686726 2.15636064663 0.419010843418
4033 1 30.5578797245 2.13559475364 0.410314143145
4038 1 29.7780326098 2.91868834011 2.61850353304
4040 1 31.3734730917 0.598889861923 2.1771782031
4039 1 32.2233090671 2.88484347677 2.62695942895
4041 1 33.7966347658 0.571841513516 2.22132203307
4047 1 32.9789490083 2.07970275229 0.424588219339
4710 1 34.7100915486 2.87955376584 2.6482710608
4705 1 35.382234115 2.11821818728 0.388704246124
4711 1 37.7179019906 2.59534467414 1.69718470972
4712 1 36.1743925017 0.700035667899 2.10821354883
524 1 38.6324981568 0.361040582211 1.92966813105
6 2 39.2312625784 3.39352870314 3.61547426349
165 1 2.78162505857 3.97317046278 1.53186628862
7 2 3.38852435548 5.5975181247 3.15175215729
11 1 1.97892807915 6.24242959975 1.04814782076
20 1 1.09349241611 5.49895281195 3.21031735319
5 1 0.315345785634 4.06589366368 1.40943715802
678 1 5.16302255628 3.9948238342 1.51324214344
30 1 5.85920637029 5.48868850458 3.33867728614
679 1 7.54398826419 3.96898883825 1.45125582628
12 1 4.37752560894 6.28190305451 1.08276716842
683 1 6.72638841494 6.23333137162 1.08307563671
1350 1 9.95365264728 3.95532369472 1.44719292216
684 1 9.13464409347 6.23551433385 1.0107143501
702 1 8.28722856987 5.49147003425 3.22259217529
1349 1 10.7520610109 5.48246017861 3.22009967845
1355 1 11.5629801647 6.2215953784 0.991911977814
1353 1 9.89281029913 7.76205086348 2.75843937614
2022 1 14.7361775935 3.94940774674 1.3939708002
1351 1 12.37708186 3.96035520185 1.44391943822
1374 1 13.2741471841 5.46070725049 3.19841058924
1356 1 14.0154802664 6.23610417999 0.841001173657
2025 2 14.6952099641 7.56031478713 2.59443790754
1354 1 12.3187221335 7.71737663522 2.75468830462
2694 1 17.0071834142 3.97342725416 0.672411371246
2167 2 17.0979449133 5.16933108176 2.43624799816
2181 1 19.2856955188 4.44594917519 0.731233237539
2183 1 18.4207517754 6.69822566572 3.54309251523
2028 2 19.9604572708 6.41147063672 1.33239540203
2693 1 20.8951580675 5.36811004069 3.06796189155
2700 1 22.4203787131 6.75067113667 1.34994882284
2701 1 21.6392417166 4.48284387056 0.806933374265
2720 1 23.2843119506 5.27096431407 3.09492398624
2702 1 24.0721626003 4.47255415425 0.891924317893
3365 1 25.7188479387 5.24205477038 3.0707860228
3371 1 24.8499967928 6.7868706593 1.32918771785
3372 1 27.3055621083 6.75660923228 1.30982339835
3373 1 26.5085330738 4.45854183883 0.868248406547
3390 1 26.5755687392 7.49739077461 3.5314938427
2719 1 24.19569653 7.53235771428 3.59356702155
3374 1 28.9419821868 4.44925712665 0.853145758563
3391 1 29.0057448859 7.52566787152 3.508275557
3392 1 28.1489905355 5.23109287412 3.05856044685
4037 1 30.563312547 5.23027592974 3.03844093545
4043 1 29.7328000912 6.75430449507 1.28247277822
4045 1 31.3653993368 4.40386044067 0.839901255582
4062 1 31.4228854666 7.53554021248 3.47766323981
4044 1 32.1281400939 6.69227744388 1.25319306103
4046 1 33.7879284489 4.29973776629 0.839482464977
4064 1 32.9572852823 5.18373579758 2.97768345532
4715 1 34.5164568996 6.47244394286 1.31078092551
4063 1 33.8215399922 7.42888579831 3.41178180872
4709 1 35.3981483588 5.19143892848 3.31676892784
9 1 39.2583313944 6.86560374882 1.82198787532
4717 1 36.1659464401 4.32204093635 1.1572851236
4736 1 37.9566153148 5.18040930408 2.88726237295
4716 1 36.828834091 6.6087715953 1.1364131052
4734 1 36.8012457847 7.40011702021 3.27959159934
4870 1 38.2760000749 5.09936679983 0.155718784126
13 1 2.36299582288 7.87027797535 2.79235870828
185 2 0.174547048032 9.11122336486 2.5650202023
15 1 3.40634999112 8.46682893643 0.577574922469
1 1 0.956252889988 8.49490413629 0.46537243079
172 1 2.54857861012 10.7273678436 0.157718909638
677 1 4.98887686919 7.78013455741 2.82257925663
681 1 4.11945530058 10.0322346909 2.3372404693
682 1 7.45180154538 7.78477311811 2.77147807609
673 1 5.84759152153 8.51828492342 0.598203996883
685 1 6.60821004576 10.064181115 2.32662898844
844 1 7.42690907431 10.8101247492 0.113972125213
843 1 4.98626392329 10.8211337133 0.137796091749
686 1 9.07060383485 10.0472142367 2.31551165707
687 1 8.28578167045 8.52088621183 0.568850698759
1345 1 10.7323879611 8.51748121353 0.546341495268
1357 1 11.5229016938 10.0299830498 2.322598627
1515 1 9.84057148105 10.8034027409 0.0864768242918
1358 1 13.9654478615 9.81748091696 2.38018105938
1359 1 13.1849275533 8.49475149393 0.526335631413
1516 1 12.2260231977 10.7541875851 0.0812427148358
2187 1 14.5081158154 10.681708628 0.101700057679
2029 1 15.9210716523 8.63991733465 0.349731485207
2699 2 18.835484384 8.85103606381 2.87349954652
2026 1 16.605860194 8.78661603065 2.9820109962
2202 2 18.9035889242 10.9911746842 0.662023142422
2226 2 16.0124157449 10.6721703231 1.863997451
2698 2 21.5690267904 8.84414519486 0.801530504398
2721 1 23.3742970672 9.10255628804 2.02312049359
2864 2 21.7774238297 11.4587148119 2.49825141233
2859 1 22.5850459763 10.644883516 0.176067615523
2865 1 24.1577736832 11.3672027748 2.33153595974
3370 1 25.7288180461 9.04070534889 1.81803400368
3536 1 26.5444071932 11.3260045418 2.26045538902
3530 1 24.9131760903 10.5352868376 0.0955426478132
3531 1 27.3171888988 10.5581524784 0.0377849888971
3393 1 28.1642308326 9.02931664686 1.73643044516
3537 1 28.9581760206 11.3293344671 2.18649141236
4042 1 30.5978155873 9.0444980665 1.71528270935
4208 1 31.3978388209 11.3746833021 2.16397762115
4065 1 33.0004415462 8.93701828403 1.64671136795
4209 2 33.705721146 11.2117020919 1.68580306821
4732 2 35.3614912426 8.53088935388 1.55239253757
171 1 38.8269517816 10.9523483849 1.25607220062
4737 1 37.7144303741 8.92075131959 1.23617967834
4880 1 36.2021862998 10.7357118523 1.84140232259
170 2 1.14629550969 12.0125520691 1.84609153527
192 1 3.44313697794 12.3724590973 1.85422780607
319 2 2.60945194172 14.5939414876 1.30572932394
4891 1 1.90796204527 13.707721248 3.42479562038
842 1 5.82121997181 12.3467129652 1.87487877795
846 1 5.01532877824 14.6022825934 1.4196515433
847 1 7.44022040108 14.6009811199 1.41198753347
862 1 6.63919776096 13.908142518 3.6015301139
864 1 8.25319209459 12.3307008513 1.85335443379
1514 1 10.6871969029 12.3137710665 1.8388684795
1518 1 9.79039495085 14.6183567044 1.40900230663
863 1 9.02598036922 13.8840067301 3.61402359293
1534 1 11.404814426 13.8175893439 3.64582878269
1519 1 12.0687640713 14.4018576073 1.45714308981
1536 1 13.1380205465 12.1815724061 1.82816436106
2190 1 14.2714588396 14.834886112 1.22488251429
2186 1 15.659869092 13.0010238345 1.55379753165
1535 1 13.7797186894 13.6910994842 3.51091674699
2350 1 17.6523462945 13.9341501251 2.66471669384
2196 1 19.233866456 15.0847081982 1.1405426278
2206 1 16.6170698736 15.381062226 0.975087355261
2225 2 18.7152469809 12.0977972761 3.68130656567
2351 1 18.2841797779 13.2005189676 0.115841317391
2191 1 20.1253199366 13.6138693098 2.71417021144
2862 1 20.7796880518 12.6840004497 0.540666399282
2863 1 22.4799006377 13.6614496415 2.78868185397
2869 1 21.5859928517 15.0386973499 0.996256647082
2871 1 23.2521932006 12.8412613346 0.596423761601
2870 1 24.0556224119 15.1165094811 0.99012120852
3529 1 25.6803168169 12.8428245382 0.509875106532
3534 1 24.8993031028 13.6602747796 2.69526275535
3535 1 27.2798552853 13.6381557228 2.63658375568
3541 1 26.4603356477 15.1766190226 0.850207187724
3542 1 28.8794928763 15.1549148085 0.827481318187
3543 1 28.0843673484 12.861959088 0.444342195364
4201 1 30.4844199458 12.8950278675 0.42113364078
4206 1 29.6348434365 13.6484352772 2.61177003061
4213 1 31.3092635302 15.2288501521 0.793467947425
4207 1 31.8841655605 13.8411236545 2.6237366856
4215 1 32.8322380337 12.9225948193 0.354114524169
4226 1 34.091529525 13.5707811854 2.44035446829
4214 1 33.7664228126 15.195884107 0.808486089096
4878 1 35.1903031529 12.7376947632 0.393380448533
173 1 38.8953633619 13.3588750663 2.64315738902
4887 2 37.2252429908 12.6260301286 1.18992002376
4885 1 36.1708613625 14.9007952568 1.03103706445
4879 1 36.2828445251 13.3882631467 3.15582100173
5027 2 38.6133517607 15.2431914188 1.14456092298
310 1 1.36702106698 17.747053227 1.78399544285
178 1 2.67741962941 19.0786836476 2.98827193387
198 1 3.27753417816 16.2675515664 3.02488436084
184 1 0.864971499987 15.7258556028 2.75612377805
180 2 4.6609536927 16.8391562649 0.919332839034
845 1 5.78330599506 16.1913646321 3.13483746674
849 1 5.01016170794 18.5073596541 2.70609524429
850 1 7.49047996521 18.490902713 2.73984779989
851 1 6.84559039681 16.9427260524 0.948882426103
841 1 5.74989080658 19.1884421584 0.512799850822
852 1 9.26640004321 16.9420647675 0.938274700203
870 1 8.23582519476 16.1886151837 3.1251932931
1517 1 10.6811724656 16.1498703065 3.1029551059
1521 1 9.97075280176 18.4504247633 2.72766779208
1513 1 10.7415407401 19.2129239068 0.582240602993
855 1 8.26272568967 19.2115855914 0.54223991465
1523 1 11.8510747164 16.8776735749 0.850914027675
1522 1 12.4372579469 18.4177691685 2.79056094773
1524 1 14.5271042895 17.2592356571 1.45423230109
1542 2 13.0403274524 15.9816452587 3.10459067234
2193 1 15.0738710081 18.8771299684 3.057283275
2189 1 15.5728563867 15.7442378668 3.07520112238
1527 1 13.2349854048 19.3210341392 0.792918922766
2194 1 18.3405859163 16.0826314963 3.34195285925
2199 1 17.1081005912 17.8842075602 2.17749862636
2344 2 18.2063111591 17.0034454071 0.450798296718
3007 1 19.9722253435 17.460993472 1.68946144698
2888 1 23.2586073657 15.9241624063 3.16107866147
2868 1 22.3145863373 17.3094033045 1.4377086078
2886 1 21.6955576959 18.1592309628 3.6076728045
2861 1 20.8026876048 15.8914515019 3.2829085991
2887 1 24.1143264777 18.2080903227 3.4588662694
3533 1 25.6862892289 15.9611538532 3.0418472445
3539 1 24.7684726931 17.4787478663 1.215716762
3540 1 27.2318853305 17.4588549827 1.26320304738
3558 1 26.5469950696 18.2259512189 3.45222797994
3559 1 29.0012210265 18.2024628328 3.44931112754
3560 1 28.1211517079 15.9403992999 3.02995541852
4205 1 30.5326055834 15.9566810381 3.0329829965
4211 2 29.6410480578 17.418305697 1.16492882264
4230 2 31.5265313834 18.2534587272 3.55637581643
4904 1 35.3014648109 15.7820215661 3.07488821759
4212 1 32.1239400978 17.4908056365 1.29395408722
4232 1 32.961224902 16.0227753097 3.01877678112
4883 1 34.5201074267 17.494880287 1.2093076515
4231 1 34.1532339409 18.2481444606 3.54322855212
190 1 38.6390557973 17.5955353142 1.36021314511
4886 1 37.7296206154 15.6631132735 3.17544645707
321 2 36.3840749853 17.8765179578 2.40751049489
325 1 36.6561880025 18.1791122147 0.110613598262
183 2 3.10548234112 19.4968323366 0.881458586961
179 1 0.680570357565 19.7189779999 0.73609406353
181 1 1.81098972984 21.2493728662 2.33121579184
360 2 3.45157977837 22.9850719533 2.32017414264
353 2 0.242321339542 23.2668681881 3.30036703249
182 1 4.29270955474 20.8520687396 2.36797062879
853 1 6.65625915597 20.7396787635 2.27366837386
1010 1 5.86487905425 23.0290431664 1.98856524934
1012 1 7.48358026181 21.5421908115 0.120615548307
1011 2 5.2148099676 21.5345576479 0.0314733524513
854 1 9.10599272414 20.7431108172 2.30132833108
1032 1 8.26271808898 23.0362401384 1.89045366615
1525 1 11.5584141898 20.7388954092 2.30835083504
1683 1 9.90238637771 21.5214044536 0.100954609754
1682 1 10.6762516745 23.0399089039 1.86532335774
1526 1 13.9846872767 20.9381227298 2.4255945906
1684 1 12.3485264325 21.5204480526 0.0928346098904
1704 1 13.0473785674 23.1158116504 1.84092663578
2355 1 14.7509214383 21.585247031 0.13128583068
2195 2 15.6384553554 19.6068519837 1.05506696187
2354 1 15.3754554778 23.2847713651 1.84574178271
3026 2 18.584189578 19.7189896667 2.05542969012
2197 1 16.5116540874 21.4459774779 2.76552240977
2376 1 19.2943299338 21.7919662967 2.13811114322
2356 1 17.2512563504 21.2699204063 0.417341109373
2866 1 20.8870172214 19.685725458 1.91267804534
2889 1 23.2627168168 19.6420242693 1.63749943394
3032 1 21.7087128178 21.955142085 2.10028160574
3012 1 19.9594954787 21.0771528747 0.069382137391
3033 1 24.1008084673 21.9789916794 2.10388437831
3538 1 25.6959302074 19.7274341482 1.66699224368
3704 1 26.5401553192 22.021781055 2.13400275585
4210 1 30.553579173 19.721042588 1.75528372387
3561 1 28.1387744041 19.7173676729 1.7071114701
3705 1 28.9825040068 22.0178047602 2.14940712819
4376 1 31.4167759742 22.0260663699 2.14112956873
4233 1 33.0442986283 19.7036522193 1.78543560827
4377 1 33.815297113 22.0052326784 2.07211179171
4882 1 35.5423191681 20.1637887413 1.78013294148
5044 1 35.8385537974 22.6591085382 3.20608901939
177 1 39.5247074505 19.614463693 2.97770206549
4884 1 37.9181061434 19.9458022994 1.24765225002
5043 1 39.3775254414 22.1991879054 1.33064515888
5049 1 37.8646503398 21.5927752335 3.04243453695
5048 1 36.8436380435 22.1802266109 0.888061059375
343 1 2.82715326304 25.2920405412 1.38364358311
366 1 3.52173423716 26.8171335845 3.19548028519
5066 1 0.434901798266 24.9643579461 1.52541578293
5073 1 1.17239463108 26.8309119034 3.20051267592
358 1 1.95402836365 24.6772527023 3.6496981926
1013 1 5.93724587843 26.9119407165 3.30054075128
1014 2 5.280642158 25.4937890694 1.69483175825
1015 1 7.48675070731 25.3180978921 1.43597230632
1030 1 6.71689825212 24.5799246644 3.68538825294
1038 1 8.33663171631 26.8655718234 3.21223183004
1685 2 10.6608027292 26.7481870341 3.20369769547
1686 1 9.83965260233 25.3215804258 1.40881760305
1031 1 9.10138372485 24.5659121725 3.6398594967
1702 1 11.5112218861 24.5457885247 3.64445252186
1687 1 12.1688369483 25.3957511771 1.40731119489
1710 1 13.1196564233 26.9138551221 3.15360451704
2358 2 14.366672631 25.4187539507 1.41352528694
2357 1 15.5904132665 26.9066306655 3.19982100271
1703 1 13.9468394174 24.6488334439 3.63102861431
2359 1 17.7106364831 23.3869046332 1.66304283559
3035 1 16.7139700956 25.5437212308 1.24771258681
2505 1 19.1537783514 25.3684939379 0.741721234604
3030 2 18.4475736868 25.218322576 2.79396741702
3039 1 23.2830540729 23.4789497276 0.28786631754
2364 1 20.2319663944 23.9507103167 2.49561591021
3031 1 22.5230388877 24.2119100859 2.42355037024
3056 1 23.3336047038 26.4274151317 2.9920253114
3029 1 20.7417302904 26.249149657 2.91147576636
3025 1 20.8600658156 23.4231545543 0.22993786265
3037 1 21.6649131126 25.7527529145 0.706410196924
3038 1 24.0822017927 25.7830300289 0.8105322462
3697 1 25.7267533333 23.5738668692 0.371214804947
3701 1 25.7108508553 26.5946480702 3.01438861321
3702 1 24.9509307256 24.2704042999 2.55323954203
3703 1 27.386634253 24.3105716458 2.58867233689
3709 1 26.5252318395 25.822929846 0.851147597898
4369 1 30.5659120261 23.5558459182 0.389956206572
3710 1 28.9561065661 25.8444549233 0.82968956187
3711 1 28.1548991491 23.5614847849 0.392096584655
3728 1 28.1508925244 26.6050030578 3.01983759092
4373 1 30.5990816351 26.6329452622 3.00778243613
4374 1 29.8678140106 24.3208808448 2.59014018395
4381 1 31.3729013473 25.8656581118 0.833101257144
5046 1 35.0509534222 23.8280452743 1.15971123009
4383 1 32.936528305 23.5221742953 0.282756494996
4375 1 32.448652942 24.3446446087 2.55305508029
4382 1 33.7269670552 25.9610343327 0.808152155625
4400 1 33.0038158366 26.7684834874 3.00553998928
5045 1 34.9912930897 25.5097085684 2.87797943766
4901 1 37.6243455854 24.2307169248 2.20911896549
5055 1 36.2133565179 26.2068474713 0.947381353042
5064 1 38.7283516456 26.9093245166 1.7365985743
5087 2 37.0740316331 26.3880460243 3.35897687534
337 1 0.955281882665 29.8993181558 0.653012596394
346 1 2.64726923091 29.0553851285 2.68831187743
347 1 1.71295475901 27.4709633867 0.954248323986
351 1 3.31020860247 29.8768122972 0.490187360249
5062 2 0.291588454938 29.0788338446 2.81284969449
348 1 4.14569487539 27.6219470035 0.95368915987
1009 1 5.76691598296 29.8590127274 0.520878299719
1017 1 5.05688848133 29.1074205756 2.74783991616
1018 1 7.49791697149 29.1169276459 2.7452914013
1019 1 6.61113541176 27.6085646588 0.998247355992
1020 1 9.04323196797 27.6183223084 0.992349362892
1023 1 8.23288338311 29.8839162739 0.549221500422
1681 1 10.6718846121 29.926408375 0.560503734578
1689 1 9.93580828382 29.1228786399 2.75084222885
1691 1 11.4528011367 27.6889847187 0.999797171436
1690 2 12.4263284928 29.2763560003 2.72752775798
1692 1 13.860919314 27.7320543439 0.959122516177
1695 1 13.1178091442 29.9767665465 0.564821639761
2361 1 14.8197970697 29.185391507 2.75686710252
2353 1 15.6299981507 30.0644651603 0.491760921703
3046 1 18.0984483684 27.3949880519 2.11718484818
2366 2 16.1095455245 27.8885761116 0.853302642543
2383 2 17.0564918831 29.2367448201 3.31035257176
3198 2 18.2299704453 30.9257443968 0.948511229186
2362 2 20.0985611129 28.3377708676 2.93117103637
2381 1 19.9388787648 27.7212414853 0.65210017476
3057 1 23.1661930222 30.3553715883 1.78052039416
3034 1 20.6683105579 30.249361957 1.85004993635
3054 1 22.2113666422 27.9983807375 1.59174331626
3055 1 24.085721094 28.8233053213 3.38379248317
3706 1 25.6629107537 30.3682332364 1.72333464658
3707 1 24.7897792512 28.0755802694 1.22108567902
3708 1 27.2875242657 28.1097142118 1.24348396184
3726 1 26.5132353316 28.8540134569 3.43938997177
3729 1 28.1286908826 30.3850757621 1.6918989214
4378 1 30.5752183472 30.402979581 1.66871510526
4379 1 29.7551009293 28.1380076296 1.23057733229
3727 1 28.980230738 28.8792922899 3.43028604543
4398 1 31.4461966647 28.9159749152 3.42267482826
4380 1 32.1870907383 28.1939636564 1.19868781712
4401 2 33.0290806155 30.4840678118 1.77240815434
5051 1 34.6117760113 28.1830588032 1.24629577327
5050 1 35.369404887 30.6221346737 1.41992391215
4399 1 33.9251167166 28.9365508975 3.4688747692
5070 1 37.0136619047 28.4651559899 0.757983852018
5069 2 36.1635665301 29.3654725741 2.97947305521
5206 1 38.1760658188 30.7275524072 2.07310792534
349 1 1.67647444187 31.3137192948 2.44501666758
528 1 3.45295138278 33.502665896 2.24501426589
508 1 2.68999483673 32.2292267775 0.393069823668
5223 2 1.03937671244 33.5252790448 1.93760484762
350 1 4.16997313856 31.28291795 2.37377157257
1021 1 6.60908428886 31.3786288025 2.31765067883
1178 1 5.76960379351 33.6430441072 1.913803162
1179 1 4.97573319187 32.1280844737 0.122572004475
1180 1 7.40172726889 32.1538666941 0.11083492633
1022 1 9.05825822208 31.3889124084 2.32051900918
1200 1 8.19186510249 33.6735740609 1.89280357146
1693 1 11.4935016185 31.4522256698 2.31079864434
1850 1 10.6169848366 33.6900314625 1.89071460306
1851 1 9.83629896614 32.1838463992 0.115227018999
1694 1 13.9752734739 31.4488882286 2.34937548618
1872 1 13.0491456703 33.6841720356 1.92662748097
2522 1 15.5772837507 33.6770816498 2.07888456895
1852 1 12.2888775162 32.221145809 0.0969012470897
2523 1 14.6896818686 32.2136164036 0.194206351049
2365 1 16.4319608072 31.4300801047 2.41226227111
2543 2 19.4156189063 33.7770202147 2.16070394113
2524 1 18.0287253762 33.1252680799 0.557740666652
2367 1 20.1319683359 31.9491091482 0.230257445517
3194 1 20.9051592524 34.1743609769 0.483037232364
3200 1 21.5963014797 32.580536552 2.23434659455
3207 1 23.3412548653 34.1759338445 0.454041060564
3199 1 22.648592336 34.8489644086 2.61804297311
3195 1 22.4961701702 31.9709388786 0.0950399575687
3201 1 24.060988109 32.6421939496 2.23071930226
3865 1 25.7331900609 34.2250936464 0.418798233137
3872 1 26.5076004152 32.660537506 2.15597436711
3866 1 24.9226195891 31.9921892559 0.0215524992209
3870 1 24.9665203225 34.959059747 2.6128664619
3873 1 28.9532702832 32.6719237583 2.13425261296
3879 1 28.1241531294 34.1864930958 0.389090293799
4537 1 30.5255365185 34.20442016 0.38180878467
4544 1 31.3887157894 32.6748348991 2.12073610713
4542 1 29.7607599847 34.9566672993 2.59859527076
4545 1 33.8334535134 32.6996757258 2.10129694702
4551 1 32.9101834139 34.2052711025 0.347750507132
5209 1 35.2549153936 34.258250228 0.148922043027
5216 1 36.1995629662 32.9430281663 1.94771664596
5362 2 37.5870371474 34.2384881797 0.220442411224
506 1 38.5262733236 34.2796735456 2.45530045397
5052 2 37.5685622659 32.2341277588 3.55651211655
509 2 0.543261741597 37.9587790377 3.40407046597
511 1 2.68499466983 35.6326271997 1.94275766122
534 2 3.70239391252 37.6057994214 3.18619757396
510 1 0.509372711542 36.0543026995 2.21859780982
672 2 3.54375564059 36.4649283908 0.071237053642
516 1 4.26715681031 38.3659403634 1.05830879654
1181 1 5.8841861174 37.5271628993 3.28489447804
1182 1 5.06152238232 35.8972711113 1.65568564405
1183 1 7.39251099495 35.9680173302 1.46850444779
1187 1 6.66366160693 38.2800145882 1.02343984484
1188 1 9.04619567708 38.2529021253 0.997536185543
1206 1 8.22491811718 37.5184687975 3.23280135421
1853 1 10.6285473564 37.5208144788 3.2104095626
1854 1 9.80772194755 35.9720580125 1.45827438952
1859 1 11.4612167214 38.2321637698 0.972170655052
1199 1 8.94407929607 35.2172703474 3.67169587802
1870 1 11.3457159473 35.2175457262 3.66753316199
1855 1 12.2341061429 35.9571636327 1.45388823392
1860 1 13.9270931985 38.1893138486 0.957649877839
1878 1 13.0467157227 37.4922131043 3.19524063911
2525 1 15.4695989549 37.5034059769 3.17761148136
2526 1 14.6384503361 35.8923571033 1.43941414684
2527 2 16.8591788758 35.9405367202 2.13340256908
2531 1 16.3390780047 37.8265460707 0.831438222938
2678 1 18.9145611989 35.7241061011 0.858735536852
2530 1 18.1344510083 37.3943820218 3.09996636858
2550 1 20.5012279141 35.6859176909 2.78567056146
2532 2 19.9891171869 37.616529 1.45293136044
3205 1 21.7769244158 36.4165539646 0.871639873185
3224 1 23.2034578063 37.1886671976 3.08670275792
3197 1 20.8268616129 37.8845191273 3.48740677826
3204 1 22.27968846 38.8360367506 1.54221970436
3871 1 27.3458030511 34.9644028314 2.59207136685
3206 1 24.0991544644 36.5165456378 0.874069574943
3869 1 25.6652961479 37.273983899 3.04286891921
3877 1 26.5035553102 36.5199775832 0.855063715683
3875 1 24.7813084025 38.7944134421 1.33349167587
3876 1 27.2664111511 38.7938741552 1.28897717323
3878 2 28.8566805378 36.4177689736 0.920391774225
3896 1 28.1054345727 37.2753644219 3.04026837978
4541 1 30.5350237933 37.266574117 2.99456663338
4549 1 31.3236221545 36.4899577091 0.804760889514
4547 1 29.7000471048 38.7542191925 1.20214771311
5214 1 34.5356289094 34.9683759272 2.47200511054
4543 1 32.1555990105 34.9845751329 2.55988390542
4550 1 33.7692810552 36.5008448958 0.789842800764
4568 1 32.9747669106 37.2460047164 3.02805579996
4548 1 32.1050398642 38.7480141469 1.23954970144
5219 1 34.5308262888 38.7243643923 1.28554187091
5233 1 35.3759918892 37.2736019408 3.12603866837
5234 1 39.3029594699 38.5465617464 1.31039641871
5215 2 36.6660135116 35.3043080857 3.19985812711
5213 1 36.2449163202 36.4724664203 0.878772767859
5240 1 37.8652157324 37.2649487108 2.97493757271
5239 1 38.7072334288 36.3625324275 0.307799451955
5220 1 36.9361911906 38.7849953708 1.31760548364
515 2 1.96438760287 39.084176367 0.730122445833
514 1 2.23902124131 39.8487939239 2.8823532316
517 1 1.66646559331 42.2554762316 2.41705080925
519 1 3.49458920543 40.653256693 0.698046032887
518 1 4.13894796659 42.1212928827 2.42926128168
1177 1 5.84866771001 40.5499409104 0.65164406841
1185 1 4.93330172066 39.846914649 2.86508009787
1186 1 7.37146571334 39.8098855734 2.80155838955
1189 1 6.60346628917 42.1166018564 2.36123618075
1190 1 9.02848387879 42.0933549454 2.32103435365
1191 1 8.25625670147 40.5355888222 0.567893854322
1849 1 10.6759203852 40.5277995541 0.536751798897
1857 1 9.79664419758 39.8012456274 2.75970119474
1861 1 11.4419411668 42.0725688262 2.28053299238
1858 1 12.1836173724 39.7740044712 2.7287111847
1862 1 13.8433750146 42.0407436153 2.20280267257
1863 1 13.0938602423 40.495145294 0.509370779948
2529 2 14.4546268146 39.6977664057 2.84201071429
2533 1 15.4427848284 40.4586501475 0.68633842644
2034 2 16.1601892575 42.307150218 2.45545455838
2549 1 16.866559307 39.7088957169 2.60913755561
3202 1 17.7718289712 41.7593613842 1.10891895766
2548 1 19.2157644846 39.6873885033 2.08813295523
2534 2 17.5131611097 39.7056106572 0.31924450277
3225 1 23.1977660351 41.107315303 1.82067037322
3222 2 20.9540230287 40.9398783403 1.35755265394
3223 1 23.9236118715 39.5541302646 3.50885933419
3874 1 25.6471898975 41.067998664 1.73667779003
3894 1 26.4552074677 39.5571839866 3.47581158045
3897 1 28.0843103306 41.0702216833 1.73994221315
4546 1 30.4977799238 41.0338750691 1.69968414557
4566 1 31.3538224767 39.536996463 3.45300091572
3895 1 28.9228068984 39.5365859523 3.43724310376
4569 1 32.8828253117 41.0403615312 1.74735797481
4567 1 33.7807380615 39.5385712146 3.52250604019
5218 2 35.1368996949 40.9788569132 1.76724609199
505 2 39.4041486512 40.9082588132 1.79015432125
5238 1 37.2624545903 41.2193842408 2.23764819204
5232 1 36.1945741841 39.4171568995 3.47432516169
5257 1 38.747188211 39.6703967948 3.65612279939
18 1 2.62451510809 0.974012520334 4.12659283129
42 1 3.3968836802 2.51990252178 5.82107480859
35 1 1.71419938505 0.342699526964 6.24046134783
16 1 0.916180068469 2.65059643553 5.76997531072
17 1 0.221685865841 0.988376873655 4.0667877308
689 1 5.02652720174 0.9792606765 4.08212329073
36 1 4.19338208308 0.224513876398 6.22723318785
688 1 5.81883911377 2.46522055314 5.86054667716
690 1 7.43424485493 0.906216919562 4.09736563122
707 1 6.60214393874 0.196909474409 6.29543794233
714 1 8.20001995402 2.48087253142 5.83633415676
1360 1 10.5767267949 2.45861398381 5.83979262263
1361 1 9.82637873028 0.90942493044 4.07689695614
708 1 9.01054999161 0.1794448105 6.28071651654
1379 1 11.4180795305 0.161268736012 6.25802506235
2033 1 14.4350728366 0.686791473083 4.03873537709
1362 1 12.176027735 0.883969754901 4.0325974913
1386 1 12.9194096691 2.41310960302 5.77909080663
2036 1 15.225157365 2.23116744112 5.86101551979
1380 1 13.8145935137 0.0872618295912 6.2567965154
2182 2 18.6180418419 2.05590655882 3.81803705609
2038 1 16.5963233523 1.3535044415 4.0542933535
2032 1 17.9309344452 2.91810210659 5.97982322166
2704 1 18.5840132767 0.56808710199 5.53917790027
2051 1 16.296097028 0.193479109721 6.15916970483
2023 2 16.2411619323 3.85955133965 4.83525126457
2692 1 21.0400069129 1.54842191869 4.3921158065
2707 2 22.6440702915 2.10404651083 6.19344565581
2715 1 23.4459401012 1.53844115921 4.19105986516
2713 1 21.6989146122 3.8531671065 4.79415239608
2708 1 21.0422523703 0.286637745818 6.58602332431
3364 1 25.7927530137 1.41279196029 4.36687528363
3378 1 24.9406027417 2.21289985516 6.59882073537
3379 1 27.3651066389 2.17143933792 6.57856037196
3385 1 26.5499661434 3.71333120605 4.83637329545
2714 1 24.1468951773 3.76586041174 4.82481833839
3386 1 28.9624123351 3.69740804087 4.82165217333
3387 1 28.1831328416 1.40033044009 4.37516254705
4036 1 30.6033651422 1.38253858602 4.37845781225
4050 1 29.8033155124 2.16223873257 6.5792097724
4057 1 31.3474320971 3.68546456761 4.81564136798
4051 1 32.2511450952 2.16819464804 6.57379964557
4059 1 33.0241173512 1.3847475538 4.39518944566
4722 1 34.7159583151 2.21743955363 6.57277334907
4058 2 33.6229328438 3.80684143768 4.80412700629
4708 2 35.3332797203 1.21455680889 4.34383687563
4729 1 36.8511129051 3.14579613302 3.81112759384
5237 1 37.4111013679 0.438900791705 4.04659579821
4728 2 36.7235600436 3.58459350451 6.22622363826
4725 2 38.7305553313 0.882827079818 6.0905731402
10 1 1.93012181402 7.00835935702 5.04236401835
21 1 2.65911764544 4.78285696286 5.44216118838
4730 1 0.213792225523 5.04050689624 5.3484281057
4751 1 1.20730881828 6.2421109477 7.23088472102
47 1 3.51604054928 6.27957008648 7.21137580804
29 1 4.29999621132 6.98602315256 4.99075779637
692 2 4.96569374105 4.66353998845 5.70343349422
693 1 7.38418382251 4.76151138228 5.4040305585
700 2 6.72120575316 7.16357304737 4.97635742497
691 1 5.87627151577 6.2859693722 7.20473670231
701 1 9.0427785291 7.04206682113 4.96457895707
719 1 8.24414991635 6.27230917334 7.16413547655
1363 1 10.6505530528 6.28338941522 7.17542487286
1364 1 9.77954972366 4.75512329054 5.41100055436
1372 1 11.4150523189 7.06288879325 4.94968634311
1365 2 12.1032946902 4.78702486033 5.48305926192
2035 1 14.3538576115 4.79586926035 5.39601726117
1373 1 13.7091956479 7.07100003854 4.97085294069
1391 1 13.0603447992 6.26373631814 7.20083807307
2062 1 15.4729506441 6.42642362505 6.77354197126
2021 1 15.9095053077 6.29972271635 4.1535501748
2039 2 19.3145602509 4.6615799857 4.55648164435
2027 1 17.7540233718 5.54758058581 6.13532736056
2063 2 19.5339669048 7.04074292113 7.31080657669
2046 1 16.056590539 3.99696835598 7.24077537504
2044 2 17.1914317767 7.75770144252 5.38226553865
2718 2 21.9295020982 7.60253870385 3.77383767467
2045 1 20.3908646925 6.35632880358 5.30621394628
2712 1 22.7046206867 6.00960277664 5.36407639473
2736 1 23.4088092609 4.41765586319 7.11067523592
2705 2 21.2190449812 4.69611392106 6.98469255824
3377 1 25.7798551325 4.46554828742 7.07881416527