ITEM: TIMESTEP
2000
ITEM: NUMBER OF ATOMS
5376
ITEM: BOX BOUNDS pp pp pp
0.0 39.5600404449
0.0 42.7297273569
0.0 37.0050293879
ITEM: ATOMS id type x y z
2 1 0.991449881947 1.77575808343 1.94610966975
24 1 3.42876377057 1.70292415911 1.92530102125
4 1 2.60800264155 0.208105698069 0.17292834347
674 1 5.86302354381 1.72017465622 1.89769418434
694 1 6.68406202857 3.26824662161 3.65772727551
676 1 7.40081820883 0.1663282042 0.133303728451
675 1 5.00836213507 0.150139958496 0.157958825549
23 1 4.25893136815 3.27687248813 3.66332887505
696 1 8.28279969406 1.71073591134 1.8866454925
1346 1 10.7133765494 1.69877697119 1.86497467976
695 1 9.09817969901 3.25359817947 3.64172536277
1347 1 9.79051150789 0.187326423749 0.10857644545
1366 1 11.4963002943 3.23522601865 3.60159314248
1368 1 13.1942183946 1.61230288907 1.83259604767
1367 1 13.8112210645 3.25817343679 3.59766438792
1348 1 12.1739574994 0.231108072854 0.0605124726158
2022 1 14.7839884505 3.85778145069 1.33228995797
2018 1 15.9516185061 1.26689501242 1.41994169501
2020 2 18.3413583346 0.920341610962 0.635655027386
2694 1 18.1153063833 2.7219448531 2.37206899803
2182 2 19.3422142416 0.872533551647 3.43768207465
2023 2 15.8743010976 2.63545578706 3.18293171506
2040 1 20.2805707935 3.02598030926 2.86998850403
2695 1 22.506543004 3.02851556338 2.61249743937
2696 1 21.5882091345 0.836969719186 2.1303071773
2703 1 23.1157363781 2.20172683354 0.396265458989
2689 1 20.5137955276 2.29270269045 0.381174718449
2697 1 24.0785899383 0.752251966217 2.07746035914
3361 1 25.5994282951 2.16183641327 0.387766246715
3366 1 24.9024531223 2.98057028391 2.61487488765
3367 1 27.3123220041 2.93572597567 2.60587573947
3368 1 26.4654876378 0.629850350257 2.1450299258
3369 1 28.8615514048 0.603805110986 2.1367633916
3375 1 28.0352330699 2.14044303085 0.38577825986
4033 1 30.4486685996 2.14885404559 0.378096918874
4038 1 29.740573991 2.90512647606 2.60815837359
4040 1 31.2304707638 0.608966623024 2.15575866
4039 1 32.1751910122 2.90888824122 2.639137183
4041 2 33.4779030211 0.662432498673 2.03254111131
4047 1 32.8643098914 2.16108004257 0.384043072293
4710 1 34.6416234932 2.87342881203 2.65943957787
4705 1 35.2649149592 2.1502527304 0.365302816415
4711 1 37.4388531822 2.57231509643 1.66567278749
4712 1 35.8972748723 0.495291066943 1.99114627778
524 1 38.5806044954 0.512291170053 1.86220500568
6 1 38.9545623986 2.94775508714 3.58790346246
4729 2 36.5940563922 3.81899815899 3.44812661418
165 1 2.74950721968 3.98654686347 1.56792530257
7 1 3.49027100339 5.60155762281 3.2471736931
11 1 2.03309107686 6.25804318792 1.09124960563
20 1 1.10315853019 5.47307987259 3.32404751367
5 1 0.328841759574 4.05285006248 1.54433016546
678 1 5.13203747885 4.04016914946 1.47846830018
30 1 5.92046610901 5.56243247449 3.23157327973
679 1 7.54609018959 4.0283631977 1.46098728051
12 1 4.39494587805 6.35370301967 1.07910649446
683 1 6.77561414908 6.33281609747 1.04537236234
1350 1 9.97268261713 4.01652239468 1.43219824283
684 1 9.18549141378 6.30901511853 1.02714604054
702 1 8.35301980844 5.55745169564 3.22854320516
1349 1 10.7988223959 5.54711175598 3.21038102197
1355 1 11.6290952458 6.29420775935 1.00735120427
1351 1 12.4180204328 3.9904309826 1.39870376018
1374 1 13.2577960429 5.55977483944 3.17072746565
1356 1 14.100026028 6.26000696601 0.949502231586
2025 2 14.8676480666 7.7016209408 2.60294957166
2021 1 15.677176871 5.31116958684 3.10879062265
2167 2 17.22121333 4.55065668959 1.3516671717
2181 1 19.3748856018 4.56814262309 0.750677740037
2183 1 18.466087023 5.48494163412 2.97938977267
2026 1 16.9654207368 7.48331640216 3.53677265954
2028 2 20.2450835943 6.52688879266 1.27741732439
2693 1 20.9650944592 5.22520664797 3.04757299662
2700 1 22.5322930089 6.72561545717 1.2776419482
2701 1 21.6749034282 4.43551469172 0.780481366865
2720 1 23.3561071664 5.22492548746 3.02703717784
2702 1 24.0779009444 4.46852746794 0.808487049646
3365 1 25.7308472584 5.26387363248 3.05828792883
3371 1 24.9058696579 6.76438524494 1.31536796168
3372 1 27.3256115347 6.75242142643 1.30069504314
3373 1 26.4920095583 4.45136290778 0.838114049378
3390 1 26.4790943515 7.55083260497 3.50211256374
2719 1 23.9524828579 7.58342419073 3.48277498291
3374 1 28.918427078 4.4401060657 0.84334632689
3391 1 28.9401594429 7.51809079693 3.50436834955
3392 1 28.146460986 5.22998300371 3.0520891654
4037 1 30.5813467594 5.20189907941 3.05180246067
4043 1 29.7551519746 6.75023212106 1.30120615115
4045 1 31.3479586175 4.43121617267 0.856352136313
4062 1 31.3564085663 7.4651911925 3.51810292459
4044 1 32.1498812625 6.74975271731 1.26601063019
4046 1 33.7485246358 4.38943788994 0.879527582755
4064 1 33.0701110886 5.1835126219 3.09201980628
4715 1 34.5012675225 6.7001983258 1.10191283951
4063 2 33.6310370215 7.42538956927 3.1526366539
4709 1 35.5468104494 5.74678465696 3.03143538405
9 1 39.3860884083 6.8955617938 1.92187200341
4717 1 36.0798160282 4.44438311076 1.01766920518
4736 1 38.2194329017 5.15947136317 2.89329254799
4716 1 36.8515692005 6.76892581043 1.14063529604
4734 1 37.4554071323 7.31641935888 3.42071343372
4870 1 38.283598682 4.99089570643 0.187147270831
13 1 2.47233829494 7.89327342552 2.80079737339
185 2 0.0987863230396 9.04059139027 2.69753675326
15 1 3.42274725998 8.57675870894 0.605663537704
1 1 1.0012415265 8.50872803499 0.491908417267
172 1 2.43784584951 10.8173397206 0.174615134201
677 1 5.0580195252 7.8593014933 2.80567714485
681 1 4.19061418504 10.0992093716 2.34323811486
682 1 7.53262460564 7.8452645128 2.78434014372
673 1 5.88819767481 8.61497075734 0.605631932016
685 1 6.68594441076 10.1132517097 2.34547424467
844 1 7.47238516396 10.8731162103 0.132629187772
843 1 4.99006957339 10.8889198388 0.16841246372
1353 1 9.97984942439 7.82300282323 2.77613166866
686 1 9.14795166791 10.1073245022 2.33471971896
687 1 8.33440644384 8.59680569305 0.587108714065
1345 1 10.7826982735 8.59581546613 0.582100312122
1357 1 11.6024736886 10.1020287325 2.3546481059
1515 1 9.9210559809 10.873746977 0.121170146448
1354 1 12.4314711923 7.80773452579 2.76271430745
1358 1 14.023558819 10.1021022959 2.42413998314
1359 1 13.2192586417 8.60898742859 0.596461715573
1516 1 12.3534942848 10.8795458428 0.123987777396
2187 1 14.7558804836 11.0102921225 0.18389704408
2029 1 15.6233508163 8.81060104662 0.462994833803
2226 1 16.3819327602 9.79683338526 2.46123766015
2699 2 18.7083076378 9.072411666 2.70253336125
2202 1 18.1356173714 11.3380086083 2.45604695296
2188 2 17.0557849907 10.8758872247 0.42066145311
2718 1 21.2520973821 8.05989954152 2.92324772337
2698 1 20.4994231036 10.1140316898 1.43911367326
2721 1 23.169827169 9.12809648438 1.74584241911
2864 2 21.9368944346 11.5703624968 2.35550662739
2865 1 24.2191604493 11.3507880814 2.22279794059
3370 1 25.6796675202 9.06862925601 1.76193054516
3536 1 26.6206580947 11.3312273993 2.18429723908
3530 1 24.8928409549 10.5499697616 0.000294796359051
3393 1 28.1568621401 9.04853409752 1.74511076594
3537 1 29.0537757872 11.3377667675 2.19115447276
4042 1 30.6286372929 9.05795359146 1.73141580804
4208 1 31.510137686 11.3178123641 2.21878776187
4065 1 33.1035407345 9.13944373708 1.66813162095
4209 2 33.8742597949 11.5789673053 1.74987019575
4732 2 35.5175453897 8.91026690004 0.744931302813
4726 1 35.5922657278 8.49637414325 2.99249456105
171 1 38.6176451648 11.1470218332 1.59971558787
4737 1 37.7525308083 9.02390128538 1.28451413899
4880 1 36.1692923057 10.8714670129 1.94861514912
170 2 1.17940723029 12.0606136652 1.91945655594
192 1 3.50180026249 12.4184493059 1.85670281572
319 2 2.82729566289 14.7211550845 1.27450505683
4891 1 2.08283449652 13.7634833772 3.46038754685
842 1 5.90843541807 12.3902256235 1.88811500807
846 1 5.13656697274 14.6601465982 1.40503769557
847 1 7.53134949371 14.6849810439 1.40320144772
862 1 6.79665488922 13.9184611886 3.61358227878
864 1 8.34769881153 12.3954573869 1.8659678434
1514 1 10.8048083088 12.3835204879 1.86456819239
1518 1 9.92853516829 14.6871537789 1.40219158444
863 1 9.16943730805 13.9276389372 3.61749736354
1534 1 11.5385790528 13.904334536 3.63076443168
1519 1 12.3012139353 14.6285261115 1.47329393789
1536 1 13.2854690334 12.3339412939 1.83940027133
2190 1 14.6811693078 14.6740106597 1.3118360322
1535 1 13.857331842 13.9091893236 3.52056328353
2186 1 15.8107957356 12.537659648 1.85060989987
2350 1 17.7312618527 13.7972114135 2.95635961489
2196 1 19.3942289786 15.1554753633 0.995690596433
2206 1 17.0130795461 15.0395387009 0.992614775901
2351 1 18.4416363114 12.962818231 0.727444657276
2191 1 20.1552718452 13.68117169 2.73034269304
2862 1 21.0958665013 13.0186549851 0.747896664274
2863 1 22.6366496576 13.7410906346 2.71015464774
2869 1 21.7982474003 15.2073001266 0.894226261386
2871 1 23.4226761865 12.8433839025 0.483214470145
2870 1 24.2228977703 15.1095861723 0.903904829435
3529 1 25.804541331 12.8441521305 0.452063168029
3534 1 25.0541610434 13.6564893107 2.65914976551
3535 1 27.4604609871 13.6352001849 2.64157961543
3541 1 26.6269680344 15.1397826104 0.895017574456
3542 1 29.0850556129 15.1426744914 0.862294925306
3543 1 28.2194606866 12.8470545692 0.428348269146
4201 1 30.6321023468 12.8529457282 0.409842483113
4206 1 29.9162707271 13.6243277678 2.62363083461
4213 1 31.5707503125 15.1335384605 0.841383066166
4207 1 32.4267173818 13.6077317866 2.62205147858
4215 1 33.0128203249 12.9797811157 0.271563156852
4226 1 34.9966857709 13.6615633677 2.62479666546
4214 1 34.0802872754 15.1988334721 0.816865661047
4878 1 35.4498244375 12.9444449093 0.385089546131
173 1 39.2652089136 13.6397192146 3.00239932805
4887 2 37.160116954 12.9296259473 1.76933813682
4885 1 36.5517505014 15.3719727574 1.04109442742
5027 2 39.0029604113 15.3412179636 1.49968942271
178 1 2.39889993168 18.2409089952 2.50765753631
198 1 3.59991126341 16.1518883079 3.12885639455
184 1 1.28138411438 15.9532786595 2.6809146409
175 2 0.215567871957 17.6518814179 3.65049631123
183 2 3.47166641482 18.9748820359 0.443991729761
310 1 1.43952234004 17.5682359861 0.123539616685
180 1 4.2051245717 16.8891948692 0.917339196625
845 1 5.95816538251 16.1989594777 3.15246591478
849 1 4.97223052059 18.4373600111 2.69897407646
850 1 7.44679295024 18.495816906 2.74062464366
851 1 6.70407279002 16.9643549124 0.950046208965
841 1 5.88901615595 19.2434806141 0.567504116728
852 1 9.17953666757 16.9907663139 0.935201668514
870 1 8.37315112812 16.2283648683 3.15443019905
1517 1 10.8273961229 16.2287079961 3.12249573098
1521 1 9.88421999439 18.5100809088 2.7384659716
1513 1 10.7336008272 19.2983198995 0.596922111957
855 1 8.31745486301 19.2753286061 0.570623342681
1523 1 11.6547294481 16.9912980513 0.897438103258
1522 1 12.25584015 18.5607831895 2.72677944269
1524 2 15.4522730376 16.8597658686 1.40982968004
1542 1 13.3279318266 16.2741633009 3.0633117614
2193 1 14.5377383791 18.5924863875 2.64857229228
2195 1 15.581201603 19.3220156134 0.643127594861
1527 1 13.1004370816 19.417122846 0.527457090605
2189 1 15.9751058566 15.9774588303 3.42209860407
2194 1 18.5615186947 16.0140565715 3.18369042637
2199 1 17.742526909 17.333358261 1.36037300412
2867 1 19.349201237 18.2689564474 3.50362609981
2212 1 16.7056560892 18.2909053513 3.30455724228
3007 1 20.1384965647 17.4288584853 1.29365287648
2888 2 23.3123075065 15.944559501 2.97505253792
2868 1 22.5546846748 17.4643649452 1.25838607464
2886 1 21.8104059277 18.2260584146 3.47008756493
2861 1 20.9431464427 15.9851017841 3.1078459297
2887 1 24.2095477489 18.2088611394 3.48179355498
3533 1 25.7996863064 15.9342287786 3.09407789527
3539 1 24.968945326 17.4068815437 1.31139318535
3540 1 27.4112079772 17.4271833702 1.30463345204
3558 1 26.6247466824 18.2068749083 3.50131956569
3559 1 29.0650701187 18.2215520103 3.48063611261
3560 1 28.2472667351 15.9291697997 3.06906832154
4205 1 30.7060466771 15.8973210503 3.03073875686
4211 1 29.8720816651 17.442152187 1.28065030347
4230 2 31.54777414 18.1981320905 3.42433116636
4904 1 35.5780771383 15.9772879687 3.25151830882
4212 1 32.3093494704 17.4575776636 1.22584484601
4232 1 33.16906327 15.9588773044 2.9745030901
4883 1 34.7106929806 17.5523482249 1.08260814857
4231 1 34.1836285713 18.2160133097 3.4463912144
190 1 39.1115893044 17.756916899 1.51680179083
4886 1 38.0649848028 15.8268726994 3.51531365635
321 2 36.6483592296 17.7813862118 2.42825225742
325 1 36.9507971805 17.992762441 0.175092746627
179 1 0.894417868193 19.7790570122 0.788675258526
181 2 1.99807674502 20.6919226665 2.59343270752
360 1 2.61350819043 22.9393972139 2.16912828209
353 2 0.275893343304 23.2402649491 3.47049455237
5043 1 0.0937684094896 22.1592593068 1.47008699974
177 1 0.0407164627271 19.7794355825 3.11845331167
182 1 4.21460431586 20.7503437231 2.27911736186
853 1 6.62882769422 20.7771866652 2.32505728204
1010 1 5.68667383532 23.0146879721 2.01014121946
1012 1 7.51879263873 21.5868086624 0.173054358234
1011 2 5.22209045338 21.5442968878 0.0873366813009
854 1 9.07719289171 20.81260915 2.34122967605
1032 1 8.21993443132 23.087965343 1.95773988145
1525 1 11.5171286565 20.8774186068 2.29559910277
1683 1 9.95054781384 21.6071188901 0.162128348818
1682 1 10.690554338 23.1538219631 1.9143284134
1526 1 13.9314102325 20.9203345711 2.29720133127
1684 1 12.4552843095 21.7525960889 0.0868913876702
1704 1 13.1355906009 23.2209964888 1.89071271159
2355 1 14.9890062828 21.7324803849 0.147594594156
2354 2 15.6122065479 22.9936489535 2.21672923977
3026 1 18.3764264804 19.5733738009 1.78440086048
2197 1 16.3700506871 20.88997571 2.11515431352
2376 1 19.0951862211 21.8872227883 2.17276982843
2359 1 17.6409504861 22.9641521788 0.459525598071
2866 1 20.836791273 19.6708803279 1.78766931799
2889 1 23.2956867847 19.7066160387 1.74668575402
3032 1 21.5789668851 21.9427202823 2.18541754412
3012 1 19.9278323982 21.1093514448 0.0735435597898
3033 1 24.0408311575 22.0142326822 2.1239080502
3538 1 25.7262711151 19.6986130529 1.73036908161
3704 1 26.4874640376 22.0106343047 2.14694611416
4210 1 30.6085575234 19.7585703317 1.74814931883
3561 1 28.178750297 19.7231748403 1.73088801132
3705 1 28.9376481247 22.0323964341 2.14722740889
4376 1 31.3740353461 22.0603547692 2.15474993448
4233 1 33.1267976908 19.7441227827 1.76706788464
4377 1 33.7617957625 22.0886041641 2.07684233995
4882 1 35.683510448 20.0888079109 1.79493025877
5044 1 35.8741620428 22.4265256185 3.12217921513
4884 1 38.0587992056 19.8911775172 1.29327936167
5049 1 37.9685439184 21.484541664 3.15498937092
5048 1 37.1394569395 22.0246581814 0.907840743989
343 1 2.84708139275 25.3320358774 1.46283565257
366 1 3.55390715953 26.7754591933 3.3032020844
5066 1 0.489028923844 24.9605959617 1.65083002147
5073 1 1.13008645707 26.7268980432 3.13215131674
1013 1 5.9372418376 26.9058720397 3.38030251029
1014 2 5.24613216459 25.4744186647 1.79197018748
1015 1 7.45056801133 25.3533819629 1.49591147021
1038 1 8.33892513828 26.8917836232 3.26498792668
1685 2 10.7130742675 26.7630356615 3.39062745231
1686 1 9.80196285651 25.4209989955 1.5089575041
1687 1 12.0919942279 25.5370187269 1.49796890081
1710 1 13.1048703371 26.9678315055 3.24120592954
2358 2 14.2650212708 25.6248841183 1.42259035578
2357 1 15.5016894159 26.7832963331 3.07430404024
1703 1 14.0246576137 24.6557117106 3.63888092159
3035 1 16.5983600728 25.194884771 1.05952644209
2505 1 19.1017319102 25.6040923927 0.298086489714
3030 2 18.6008558851 24.3468386316 2.02638616457
3046 1 18.0446011961 26.6544478157 2.27548803978
3039 1 23.1242836891 23.5122159431 0.297662109647
2364 1 20.5648049381 23.5451880625 0.502814251042
3031 1 22.274082667 24.1906009207 2.38591031866
3056 1 23.163401274 26.4168898634 3.00748399685
3029 1 20.5070864207 25.9189136166 2.52353870084
3037 1 21.6378004665 25.7911201835 0.537120777309
3038 1 23.9620713601 25.8228925656 0.754199006471
3697 1 25.5807168919 23.5066104936 0.37774813361
3701 1 25.5609945484 26.5911526385 3.03545217005
3702 1 24.7801524592 24.301437431 2.56273476059
3703 1 27.2478218715 24.2996068532 2.60000120954
3709 1 26.3813645852 25.772661661 0.862066549817
4369 1 30.4860812259 23.570683355 0.380719245243
3710 1 28.8193753918 25.8219202152 0.834942215625
3711 1 28.0392179192 23.528184944 0.392053886795
3728 1 28.0042499438 26.5975491075 3.03296816898
4373 1 30.4309200904 26.6461247842 3.0291969565
4374 1 29.7084355722 24.3303712888 2.5949829889
4381 1 31.2435329703 25.8957646638 0.850908144688
5046 1 35.2039864848 23.5927261724 0.65972733885
4383 1 32.8835787813 23.6368988389 0.383850849783
4375 1 32.1654039524 24.3821033034 2.59563434627
4382 1 33.7187656891 26.0346973228 0.970199666036
4400 1 32.7862236839 26.7829539185 3.05525652886
5045 1 34.6093319781 24.4743060063 2.69946105053
5087 2 35.0149252089 26.8189153816 3.02670744334
4901 1 37.5939225016 23.9034937453 2.2456818737
5055 1 36.4247635353 26.3512766425 1.20587349429
356 2 38.0676998284 25.9539505351 2.94268005554
337 1 0.998336858281 29.7765308117 0.64740939411
346 1 2.83956647191 29.0916640404 2.74816165841
347 1 1.84676050376 27.5105055892 1.01707123964
351 1 3.37100908115 29.9508701011 0.458670276869
5062 2 0.65762444371 28.9469246993 2.77090649552
348 1 4.19034979783 27.681322467 1.05358906169
1009 1 5.78186004959 29.903152559 0.559359140907
1017 1 5.14159498719 29.1453371707 2.82902521699
1018 1 7.53163521796 29.1451144813 2.81213187715
1019 1 6.56799140571 27.6474948445 1.08264812379
1020 2 8.84794665552 27.6122442897 0.98570890645
1023 1 8.20688615789 29.9443542277 0.610999521244
1681 2 10.6173860358 30.1690472579 0.516185508179
1689 1 9.95651365923 29.1428489735 2.76794613739
1691 1 11.3528843272 27.8537342056 1.14384461045
1690 2 12.4951620172 29.3131541207 2.93729953884
1692 1 13.8288057704 27.8924847147 1.07691353575
1695 1 13.053315672 30.0658792599 0.700864102257
2361 1 14.9469604292 29.231942116 2.92446549052
2353 1 15.509216874 30.1426189573 0.76512590627
2366 2 16.2483919938 27.9349553377 1.09154636619
3198 2 18.2841874482 30.3506049222 1.04290023934
2381 1 19.6511578283 27.9794852217 0.885404665616
2362 2 19.8867361689 28.1544114863 3.07216535866
3057 1 23.0827014556 30.3101671203 1.70172229522
3034 1 20.6705156597 30.1041716557 1.63055693956
3054 1 22.0046401068 27.9383395891 1.60363663989
3055 1 23.867848451 28.8218865945 3.43816703324
3706 1 25.5324155305 30.3535683027 1.68574666046
3707 1 24.6394537163 28.0701251556 1.24961760267
3708 1 27.1451629803 28.0776891403 1.2447346464
3726 1 26.3622598539 28.8489899367 3.42797757141
3729 1 27.9843735832 30.3613873807 1.68082316291
4378 1 30.4335291349 30.3775262545 1.66762773897
4379 1 29.6208664041 28.1182991774 1.21929380182
3727 1 28.856910642 28.8682105932 3.42854364641
4398 1 31.3403341013 28.8970475379 3.40576221728
4380 1 32.0774605966 28.174739085 1.13448091871
4401 2 32.8819086962 30.4280346782 1.65763606741
5051 1 34.5295538772 28.3793348271 1.23641877287
4399 1 33.7904698989 29.0342627617 3.43539610827
5050 1 35.5742643681 30.5885294945 1.97446624476
5064 1 38.8165419949 27.483217494 1.61712065964
5070 1 37.3314634268 29.0198235911 0.48609563148
5069 1 36.6055266304 28.3824774826 2.74824902088
5206 1 38.3295905462 30.1614251532 2.82784205319
349 1 1.59430790186 31.2674183486 2.39957815773
528 1 3.37429787291 33.5764985134 2.31405529274
508 1 2.64855322322 32.3266409745 0.47832708752
5223 2 1.07756317128 33.4373187557 2.27638613857
350 1 4.1280346736 31.3179609647 2.4060549337
1021 1 6.57549436787 31.4008152498 2.38790597089
1178 1 5.73806704276 33.6785562292 2.00590133097
1179 1 4.94076725653 32.1186023477 0.152592922046
1180 1 7.34969366208 32.1913323357 0.165676744419
670 1 4.22849451684 34.3698817938 0.109286542062
1022 1 9.02951534985 31.4113837815 2.37402849946
1200 1 8.14808596926 33.7111980381 1.94694517416
1693 1 11.451330434 31.4925295376 2.40975285241
1850 1 10.5696006123 33.7590078104 1.97398236659
1851 1 9.76361356862 32.3086199035 0.180433694372
1694 1 13.9172890911 31.5014043144 2.46443502861
1872 1 12.9933873344 33.7856116626 2.04537892797
2522 1 15.4144884139 33.9073713357 2.02940676533
1852 1 12.2217929809 32.3028894977 0.229530869676
2523 1 14.663959379 32.3343516412 0.337338139605
2365 1 16.3800924532 31.6576539181 2.49643160029
2543 2 19.1795379997 33.3872107477 1.22826653312
2524 1 17.18996022 32.4273065255 0.326233131294
2688 1 17.7289474043 34.4631219845 2.4032663088
3194 1 20.8958634182 34.1870405844 0.211890479082
3200 1 21.4575600399 32.5313949146 2.04153872698
3207 1 23.138615497 34.1674985313 0.425754690074
3199 1 22.1789902804 34.8309143853 2.69408192121
3052 2 20.0722235564 31.3274236484 3.48618654494
3201 1 23.8650385885 32.6159839939 2.18756193672
3865 1 25.525996123 34.2044636502 0.405688910543
3872 1 26.3428147659 32.6500299184 2.12641977624
3870 1 24.6879090409 34.9427951454 2.60241501262
3871 1 27.1540779589 34.9563735725 2.57818561345
3873 1 28.8023066818 32.6573212215 2.11396257451
3879 1 27.9231435753 34.1645144731 0.382534875717
4537 1 30.3270783375 34.1570238619 0.385131018448
4544 1 31.2451444843 32.642176653 2.11934623913
4542 1 29.5959694844 34.9408170176 2.59390288617
4545 1 33.6675577416 32.6361830763 2.17781181485
4551 1 32.692525454 34.1458448426 0.39625199836
5209 2 34.9211515147 34.3946715671 0.150729170756
4543 1 32.0111867335 34.9316902549 2.60988100292
5214 1 34.4096448099 34.9109462107 2.59081437956
345 2 38.8728387975 31.1363067847 0.676656184858
5216 1 36.00324791 32.9699127521 1.79584201746
5362 1 37.2746498814 34.303055977 0.387248188116
5052 2 37.3762004141 32.0983255599 3.46048442018
506 2 0.0677108947794 36.1670297697 2.23473209358
509 1 1.1239115532 37.8673775817 3.14115556046
511 1 2.50718571472 35.7387071446 2.01377200276
534 1 3.38298204815 37.5196415829 3.52405553359
510 1 1.32025126943 37.2268876417 0.682173319247
516 1 3.93934073003 38.300200024 1.25452333076
672 2 3.3282388053 36.4632253284 0.00972092838191
1181 1 5.75194946069 37.5705326856 3.34537031146
1182 1 4.93932380366 35.993868267 1.74958897248
1183 1 7.30840536008 36.0115283735 1.52154160422
1187 1 6.46125474656 38.3071204407 1.07688921246
1188 1 8.89776160541 38.3157000077 1.03409579166
1206 1 8.15132130277 37.5480420024 3.2799160805
1853 1 10.5776158027 37.5717687651 3.25159184872
1854 1 9.72341547374 36.0452225574 1.50312394483
1859 1 11.3189847894 38.3396610806 1.00389721356
1855 1 12.1368169258 36.0789092704 1.53236522157
1860 1 13.7299249222 38.4097501578 0.960805864925
1878 1 13.0162856029 37.6221086837 3.25592742999
2525 1 15.5637531674 37.719363697 3.28064962036
2526 1 14.5330046733 36.1884900416 1.59649186429
2527 1 16.8168565207 36.4817826564 1.34961091623
2531 1 16.0468291277 38.7626283581 1.07417696457
2678 1 18.896198287 35.6154444225 0.564516132734
2530 1 18.2245348829 36.9893664184 3.15689921054
2532 2 19.7523109003 37.5592458587 1.33832564347
3205 1 21.5783452359 36.3917628555 0.89799328973
3224 1 23.1442492184 37.2451076767 3.13555953275
3197 1 20.7701665954 37.0223987986 3.21991003187
3206 1 23.8751469666 36.5203111864 0.882351377663
3869 1 25.5363321223 37.2842832127 3.07241454141
3877 1 26.2963692817 36.4987109786 0.856885937789
3875 1 24.632228412 38.8121468786 1.34328067149
3876 1 27.1083319353 38.7702332456 1.28982798612
3878 2 28.7287100689 36.4593788708 0.836189461058
3896 1 27.9796435602 37.2512060118 3.03380770723
4541 1 30.4237388365 37.2407525417 3.03316820541
4549 1 31.1545104653 36.4423334004 0.828343074663
4547 1 29.5481832328 38.7502499169 1.27145263215
4550 1 33.5522414683 36.4323218709 0.809929377315
4568 1 32.8579237463 37.2181022917 3.03703332144
4548 1 31.9434474727 38.7287889609 1.26247331651
5219 1 34.3273479044 38.6370759372 1.24386437133
5233 1 35.2699709673 37.156852338 3.04998895504
5234 1 38.8998552013 38.6026859514 1.31581458681
5215 2 36.727735221 35.1599745087 2.71149729836
5213 1 36.0185871273 36.5068414255 0.801016384946
5240 1 37.7670745556 37.3691342684 3.00435519221
5239 1 38.5292569813 36.4210701628 0.208762479826
5220 1 36.6562360188 38.7057912611 1.15684907936
515 1 1.43588308918 39.5139920382 1.14812363601
514 1 2.63705192955 39.904586611 3.03998037976
517 1 1.69250351071 42.1445480259 2.28612080741
519 1 3.42393834813 40.6235717195 0.669471974873
518 1 4.17260456861 42.1562374015 2.39545761153
1177 1 5.76132714548 40.5958136848 0.635594553676
1185 1 4.98887316345 39.8601954326 2.85864622408
1186 1 7.3785226522 39.8467037374 2.82461855615
1189 1 6.61447838147 42.1497698237 2.36495420498
1190 1 9.04474421174 42.1395227405 2.33355067735
1191 1 8.13251756219 40.5978050781 0.57601351176
1849 1 10.503181214 40.6196947979 0.558309709312
1857 1 9.77164098142 39.8459649225 2.79398612441
1861 1 11.5075587577 42.1453878235 2.28339853189
1858 1 12.1536349085 39.8675195957 2.74461092329
1862 1 14.0711446917 42.0505684846 2.11553740508
1863 1 12.8100931261 40.6411416426 0.454304713617
2529 2 14.3847608242 39.7444154834 2.89575613636
2533 2 14.9632993281 40.6505727361 0.0150847108801
2034 2 16.4645936004 42.1143001605 2.86536724245
2549 1 16.9789463742 39.7588499635 3.05897747079
3202 1 16.7397209372 41.7445486935 0.694831160621
2548 1 19.5141807918 39.5086966963 2.74250037678
2534 2 18.0897332867 40.0985832981 1.11065920974
3204 1 22.1413509491 38.8735681693 1.47459985836
3225 1 23.2589221472 41.1857721809 1.63011029962
3222 2 20.8639731926 41.3754597641 1.56715516106
3203 2 21.6091426826 39.1260742323 3.63879097868
3223 1 23.8820150041 39.7077149693 3.61068880995
3874 1 25.6480992319 41.0426613539 1.65349254947
3894 1 26.3472729633 39.5697684141 3.48787078789
3897 1 28.0377208578 41.0392881984 1.69023254044
4546 1 30.4373803215 41.0256282654 1.69065840069
4566 1 31.2765836648 39.5277053704 3.46561730906
3895 1 28.8230511209 39.5267925204 3.4573728708
4569 1 32.8248711434 41.011864375 1.70963945933
4567 1 33.7218713904 39.5084781241 3.48215427375
5218 2 35.1198102005 40.7388504962 1.65319125951
505 2 39.3833606476 41.0080711415 1.43676856354
5238 1 37.2668359942 41.1235863913 2.03231992593
5232 1 36.1657674395 39.3069887256 3.38638398191
5257 1 39.1177091233 39.6669131849 3.55690339202
22 1 1.81649048277 3.22581332345 3.71996041465
18 1 2.64540592711 0.97072896534 4.0860828439
42 1 3.38953878617 2.50734583568 5.84943361827
35 1 1.93599831927 0.361417258022 6.30203581916
16 1 0.870256587665 2.54883078756 5.88466523867
17 1 0.3444912656 0.750288647896 4.02202249979
689 1 5.06394881069 0.984843694889 4.08890936692
36 1 4.31982303556 0.271351273562 6.28409941344
688 1 5.85164529011 2.50075162113 5.86369908104
690 1 7.47530861026 0.96490568662 4.09900747274
707 1 6.70133958149 0.216567083894 6.32455388642
714 1 8.28073812552 2.49209261188 5.86433652627
1360 1 10.7018546457 2.48733663747 5.8350559747
1361 1 9.89236900069 0.950296540852 4.07874856334
708 1 9.09837821108 0.195173786757 6.30358183412
1379 1 11.5082959882 0.197210784578 6.22508210568
2033 1 14.6956118803 0.833004388691 3.96181271205
1362 1 12.3229179306 0.941219203494 4.02243967428
1386 1 13.1092183704 2.46149682618 5.80604603204
2036 1 15.5622946642 2.53234516212 5.68126928533
1380 1 13.933807342 0.166840406412 6.16918145155
2038 1 17.1650855054 1.02935134974 4.18480471093
2032 1 17.8848062824 2.81576901222 6.13597337024
2704 1 18.8537458079 0.603686586842 5.92129118094
2051 1 16.4017378154 0.30958063942 6.24548057933
2692 1 21.1997915062 1.18736884145 4.67334247128
2707 1 22.5074507331 2.16586386523 6.52873094683
2715 1 23.4376892454 1.59405418202 4.31523364589
2713 1 21.6085622825 3.66351492254 4.88136795154
2708 1 21.0701953265 0.332803127026 7.04608399381
3364 1 25.7964052537 1.49963865883 4.37602702561
3378 1 24.8807994178 2.18023428491 6.55283744227
3379 1 27.3099785708 2.16582420399 6.55213928732
3385 1 26.5040977904 3.75887441938 4.82501241567
2714 1 24.0571998463 3.81379792067 4.84977790066
3386 1 28.9140054803 3.70543051051 4.81466991271
3387 1 28.1537161272 1.4044840766 4.35470713279
4036 1 30.5484096216 1.37880289948 4.37140943603
4050 1 29.744670533 2.15939308339 6.55914517827
4057 1 31.2966919116 3.70007300089 4.83130334546
4051 1 32.1865139656 2.12612969039 6.54906925898
4059 1 32.9863471312 1.34012829803 4.34927387166
4722 1 34.6816041932 2.1576304668 6.58816583144
4058 2 33.526955304 3.64144547103 4.91447243422
4708 2 35.3209412935 1.12216925265 4.4431086676
5237 1 37.3396256846 0.298576495713 3.78713371069
4728 2 36.6300798116 3.62228560024 6.46775650487
4725 2 38.3292496874 1.53178143464 5.30269790023
10 1 1.99908451694 7.02749273369 5.07905489678
21 1 2.62389963257 4.75812810839 5.44450076721
4730 1 0.129101522779 4.93845966704 5.40273384712
4751 1 1.02352032029 6.33657806732 7.19842781273
47 1 3.47810981278 6.32074854015 7.17198600388
29 1 4.35032778184 7.05897800858 4.9899722202
692 1 5.06976699194 4.77234289342 5.42652960797
693 1 7.50419756328 4.77326750902 5.41977502915
700 2 6.75642906905 7.07216011001 4.98759520515
691 1 5.89918080666 6.29764424588 7.17828905483
701 1 9.19875147137 7.0721172641 4.98074256216
719 1 8.3203184248 6.30183976598 7.17185760433
1363 1 10.7500727472 6.30869633164 7.16104756554
1364 1 9.92100875741 4.77773385974 5.41044073737
1372 1 11.6510228102 7.07573886853 4.96043843817
1365 1 12.322769138 4.77794455633 5.35726188574
2035 2 14.6192956964 4.72675561915 5.41634885113
1373 1 14.307616378 6.99140401913 4.90029823183
1391 1 13.1848750252 6.29871480114 7.09667108825
2062 1 15.5741022022 6.24678215765 7.08491488781
2039 2 19.0214947349 4.04123221262 4.59588334573
2027 1 16.9163403362 5.232642763 5.18850753285
2044 2 16.8038102757 7.58907896776 5.72780687149
2045 2 20.1489317733 6.78559487665 4.40519406052
2712 1 22.4202617298 6.21960187131 5.01907233902
2736 1 23.2098356936 4.52445204638 7.01351587636
2705 2 20.9619110629 4.12992382557 7.28459407449
3377 1 25.646067799 4.48574739371 7.02079247484
3383 1 24.8662816269 6.06241790461 5.25195788818
3384 1 27.3319526014 6.02742494794 5.25615247169
3408 1 28.0673963026 4.4721193596 7.01616834115
4049 1 30.4496133057 4.47280233208 7.03254107698
4055 1 29.8058155773 5.9887905745 5.25011292413
4056 1 32.3724702301 5.95199972735 5.31802336333
4080 1 32.7449113624 4.41982593625 7.14623751695
4721 1 34.8738473852 4.87759271475 6.6988294491
4727 1 34.8592350568 6.85187133116 5.07914243668
27 1 39.2302508337 7.2521748239 4.76495772948