ITEM: TIMESTEP
36000
ITEM: NUMBER OF ATOMS
5376
ITEM: BOX BOUNDS pp pp pp
0.0 39.5600404449
0.0 42.7297273569
0.0 37.0050293879
ITEM: ATOMS id type x y z
2 1 1.18225915964 1.75240836897 1.93676382022
24 1 3.51071757348 1.69544374598 1.81834124619
4 1 2.54829588469 0.174867033492 0.0288370732575
674 1 5.88548376787 1.70258642137 1.83590708469
676 1 7.44223218155 0.160983073212 0.0835018946613
694 1 6.69577950049 3.22530734542 3.61141911717
23 1 4.29777552477 3.25410964079 3.58514109445
675 1 4.99883338967 0.158581435434 0.0654217022967
696 1 8.2896597588 1.67505485656 1.8476269355
1346 1 10.6806441526 1.66245946799 1.89313155921
1347 1 9.87148420312 0.149049851811 0.127623418769
1366 1 11.5593120528 3.16956137734 3.61640798996
695 1 9.11738150031 3.19758152508 3.61326814119
1368 1 13.0582922969 1.64854698772 1.931840334
1348 1 12.309779325 0.124567531961 0.151032500551
2019 1 14.7371799128 0.0221813134481 0.15011874957
2018 1 15.3332146466 1.6128866301 1.81147862463
1367 1 14.0591369604 3.12727100075 3.66073719767
2023 1 16.6087577388 3.02388041621 3.59118340109
2020 2 17.5142465949 1.68433237591 1.7275365029
2181 1 19.4827358067 2.80206688406 2.69901664691
2683 1 19.0888123282 0.152276656341 2.01151182116
2167 1 17.2860449605 3.88155697653 1.34236906985
2695 1 22.2682748136 3.06789972955 2.40592547674
2696 1 21.4782373828 0.563752931149 2.48921167804
2689 2 20.6831310571 1.77897727535 0.851585967379
2703 1 22.9051709356 2.35975991251 0.0346030797008
2697 1 23.9478163249 0.731814180258 2.07490009438
3361 1 25.4980013297 2.19214866589 0.396615461404
3366 2 24.7954240681 2.87308301284 2.81107574302
3367 1 27.2175200672 2.95705821557 2.57938189962
3368 1 26.385564604 0.704293563742 2.13335246047
3369 1 28.7920695079 0.675961888215 2.11709349832
3375 1 27.9311439951 2.24927556643 0.362857803434
4033 1 30.3792015421 2.20128426757 0.385132679529
4038 1 29.6125036763 2.94524510935 2.58755907907
4040 1 31.2327369811 0.564602317358 2.14281816604
4039 2 31.9034279838 2.66763821168 2.52338836606
4041 1 33.6888850677 0.668088434264 2.15652842536
4047 1 32.8197995611 2.24826992908 0.395072306592
4710 1 34.0378269695 3.03351263126 2.83417573297
4705 1 35.1611304895 2.15095442399 0.475961893647
4711 2 37.2449608523 2.29262582135 1.75973844001
4712 1 36.1398338607 0.350458420948 2.21245044166
524 1 38.8183233162 0.168859709731 2.27882315215
5241 1 38.9883832683 2.24010764081 0.416148590292
5 1 39.0983895371 3.12802360642 3.27618733949
4707 1 36.9843623708 0.405631034295 0.00198357017274
4870 2 0.517840532987 4.12449456944 1.01914916082
165 1 2.73506650567 3.98843118393 1.46507184812
7 1 3.42241649045 5.56673021022 3.12130942302
11 1 1.74094638198 6.29989681002 0.791993899764
20 1 0.919427280642 5.49510817455 2.99032703956
678 1 5.09729969007 4.01882353479 1.38284038012
679 1 7.51644780922 3.9814377125 1.40245533579
30 1 5.88031381666 5.52493545241 3.14845688615
12 1 4.21938647302 6.33161789233 0.938058265184
683 1 6.68347349073 6.27092104233 0.9426310225
1350 1 9.94245668746 3.95628738803 1.40890485191
684 1 9.12653564787 6.24004351631 0.96004859206
702 1 8.32183461739 5.49784240903 3.17360303877
1349 1 10.753618595 5.46509033868 3.17672980746
1355 1 11.5626120137 6.22602103694 0.981853744652
1353 1 9.94642324552 7.73400508385 2.70518657613
2022 1 14.7925531407 3.9854323274 1.50327467222
1351 1 12.3690872952 3.95343621897 1.44756763162
1374 1 13.2079522601 5.45992487893 3.1697021541
1356 1 13.9976674153 6.23827867845 1.02345218098
2021 1 15.610785366 5.35492779454 3.41749542316
1354 1 12.4005244435 7.76187200213 2.7602187338
2183 1 18.3075004202 5.09506942979 3.09835299552
2028 1 18.9557111368 6.27497792415 0.990695168113
2026 1 16.4116044778 6.12423246645 1.04821144577
2027 2 17.0578504989 7.0149658251 3.17884318494
2064 1 19.2870570391 7.47294697746 3.16529878661
2845 1 19.9264942955 4.14531407779 0.759964369937
2693 1 20.709337663 5.38345388738 2.81822823199
2700 2 22.4710687189 7.11522846335 1.31487251797
2701 1 22.1104275235 4.99888859874 0.875529260714
2720 1 23.2539733865 5.24592307997 2.99278915188
2718 1 21.7435157384 7.58913933395 3.43559430151
2702 1 24.3560688706 4.22856352737 0.904494328994
3365 1 25.6418009225 5.23271974998 3.00034658949
3371 1 24.7619479593 6.63783537835 1.18573073745
3372 1 27.2045130996 6.79626498545 1.22691849556
3373 2 26.6277511 4.57551550698 0.825291829052
3390 1 26.5232073476 7.49698707998 3.4388018141
2719 1 24.1393296875 7.54101806602 3.37629410309
3374 1 28.8785779852 4.49177122169 0.794565837796
3391 1 28.9193838959 7.5206033814 3.46872260689
3392 1 28.0139948333 5.24707151084 3.0131901069
4037 2 30.2663300015 5.30016426007 2.90325287675
4043 1 29.6467915596 6.81839462139 1.22571079468
4045 1 31.2828124852 4.47129410353 0.815354117524
4062 1 31.3017452619 7.45012177702 3.42511904966
4044 1 32.0846697867 6.74649298529 1.29137249368
4046 1 33.7363833394 4.67839950183 0.802698789756
4064 1 32.690988286 5.09908697477 3.02261412481
4715 1 34.5944186517 6.87563625066 1.23404242078
4063 1 33.6984801543 7.30310074076 3.39443671942
4709 1 34.9497890163 5.21937713785 3.49812184785
9 1 38.7938184792 6.67427158392 0.64243737851
4717 1 35.8085327575 4.09868849021 1.59984856893
4736 1 38.0929424799 4.71627233078 1.85640061306
4734 1 36.5861356594 6.50905535353 2.65674591061
4716 1 36.5150863857 5.70284987748 0.217056831412
185 1 39.2544612473 7.49847025901 2.75259937727
13 1 2.53337737655 7.78664008046 2.58336642015
15 1 3.47186331577 8.64778580292 0.483538545223
186 2 2.04428572679 10.1492828324 2.26892015882
1 1 1.05011046872 8.61559989565 0.515953207759
677 1 5.06353214404 7.81480202886 2.68089326938
682 1 7.50980133714 7.78689087825 2.70936896599
681 1 4.35723482715 10.1109862806 2.21656756001
673 1 5.90202881155 8.55882042918 0.480530597791
685 1 6.76213288613 10.0881812551 2.25549974259
844 1 7.55405618491 10.8232291075 0.047115594292
843 1 5.09854638101 10.8348114128 0.0132926146601
686 1 9.18299001736 10.0680065654 2.29538478496
687 1 8.33526591981 8.5407074567 0.517164871566
1345 1 10.7568111959 8.5330549792 0.54525954907
1357 1 11.6151742986 10.1027867922 2.32864184571
1515 1 9.98754680225 10.826719024 0.0928293804548
2025 1 14.8489854803 7.90933899653 2.70787810621
1358 1 13.9461934537 10.168481176 2.18379309091
1359 1 13.144225347 8.50066246496 0.526262459377
2029 1 15.500446498 8.47593608789 0.354842901805
1516 1 12.399820605 10.7939417613 0.0565109043535
2208 1 17.6959896757 8.24531428453 1.31080427832
2699 2 16.2843280283 9.91749154653 2.05408258022
2202 1 18.8564055319 10.1422422404 1.90989246477
2698 1 20.6160801873 8.75351610922 1.51784206397
2721 1 23.2326497559 9.1775718365 1.68597291386
2864 1 21.6084680029 11.2414375337 2.12155533247
2865 1 24.060878291 11.380700591 2.17688632585
3370 1 25.6646162635 9.02470864078 1.69343765471
3536 1 26.4834467198 11.3116732287 2.17836584081
3393 1 28.0873712219 9.02644151576 1.70626701232
3537 1 28.9284463406 11.2575985889 2.18880193355
4042 1 30.5354652071 9.05231963035 1.72215506668
4208 1 31.5748053411 11.2073267229 2.1334894349
4726 2 35.2324299064 9.23412417475 0.537902887411
4065 1 32.9634847611 8.95936747157 1.64737022788
4209 2 33.9152515164 10.6746047526 2.98180285618
4874 1 34.1274585826 11.0912960058 0.331684910337
4732 1 37.0276646794 8.23620575499 1.27785406278
4737 2 37.1856331615 9.00018202193 3.31652352155
4880 1 36.0570872152 10.8185083483 2.26060303908
171 2 38.5435202244 11.4880967578 1.94883689166
192 1 3.52719339525 12.3670681395 1.7399811377
319 1 2.84928003936 14.665422459 1.33236249534
5027 1 0.52097685747 14.7475523733 1.24185479535
170 1 1.10512547823 12.3759079986 1.59028367967
184 1 1.94169902215 13.8605120252 3.40470708574
842 1 5.96141487956 12.3771771941 1.78261475918
846 1 5.18634913937 14.6600555829 1.32095346242
847 1 7.57878344831 14.6498383722 1.36262889317
862 1 6.79140280246 13.8861691524 3.56524573722
191 1 4.37731963945 13.9109338095 3.51084157935
864 1 8.39181995951 12.3528322983 1.82413613601
1514 1 10.7990482721 12.3746546226 1.87573378479
1518 1 9.99458598542 14.6728031777 1.41749327967
1534 1 11.5976819121 13.9717933459 3.62414921372
863 1 9.21700492931 13.8423441681 3.60859855972
1519 1 12.3853130602 14.8025150981 1.42510122404
1536 1 13.1510719795 12.4426227388 1.68419678724
1535 2 13.8299905494 14.0523557887 3.34416106365
2186 1 14.80634339 14.8375948338 1.21101111315
2226 2 15.3472469193 12.6073500204 1.30199995818
2350 2 18.4723984366 12.05467448 0.709705123921
2196 1 19.3291267003 15.2753144995 1.00491511262
2206 2 17.2158465311 15.0879366358 0.493672248708
2225 2 17.1696255702 13.6746402245 3.6992693511
2191 2 20.2892372228 13.6947745614 2.63597508337
2862 1 20.7513902965 12.9045217436 0.458329347488
2863 1 22.5054197768 13.6041808271 2.62210356008
2869 1 21.7051724367 15.1723590641 0.916880355488
2871 1 23.2255831815 12.8645755448 0.418113686517
2870 1 24.1055552962 15.1704091151 0.872330314231
3529 1 25.6632229926 12.8776732007 0.425302696955
3534 1 24.8750914554 13.6481509082 2.63171232155
3541 1 26.5559808094 15.1779883453 0.87496177418
3535 1 27.2460542803 13.589667021 2.62459184193
3542 1 29.0173787132 15.1530276945 0.935882868377
3543 1 28.1010092637 12.8832903389 0.444346236991
4201 1 30.502643172 12.9295084355 0.489815008504
4206 1 29.6144934841 13.457467031 2.74542395089
4213 2 31.4397671282 15.3716160387 0.422255638758
4207 2 31.954813913 13.2563665337 2.79549514648
4226 1 34.2544330321 12.7587758438 2.23087334599
4215 1 32.8061618833 13.1261517425 0.344137223574
4214 1 33.8918167688 15.2346694602 0.761402104468
4898 1 35.4542353373 13.1202182349 0.279234210624
321 1 35.5914074571 15.2214713262 2.61102381159
4904 1 36.7756670918 13.0496222457 2.17815634413
318 1 38.1722227602 13.1287490392 0.19310502706
173 1 39.1475428584 13.5137375298 3.12874768754
4878 1 36.3310626674 15.4065306228 0.452289665461
4886 1 38.0264563658 15.3903768808 2.2892879031
178 1 2.27789414851 18.4643538835 2.9392924676
198 1 3.45657008907 16.2133279154 3.12119959769
310 1 1.97686224909 16.9732010877 1.05654694069
183 1 3.29927743782 19.1761729266 0.638373778065
179 1 0.854785741703 19.0781423313 0.538779618748
4896 1 1.03464103291 16.0600967423 3.24067605052
180 2 4.31253712356 16.9864209766 1.03079142065
845 1 5.91014955796 16.1638599022 3.12207550937
849 1 4.96149458538 18.448393948 2.78509085194
850 1 7.43184784949 18.4550488089 2.73750868506
851 1 6.72298733643 16.9355587323 0.955048455545
841 1 5.79051162638 19.1974583617 0.568903628229
852 1 9.13414881627 16.9699068017 0.9738128736
870 1 8.33427403918 16.1459534732 3.15476803145
1517 1 10.7592402761 16.2381012453 3.16419901859
1521 1 9.86103193706 18.5243393143 2.72112167623
855 1 8.23281758149 19.25170094 0.530568092514
1513 1 10.6381960676 19.3229196496 0.479247190438
1523 1 11.566742992 17.0407050221 0.995633983861
1522 1 12.2333653278 18.5963162913 2.75236823523
2193 1 13.2692096702 16.4026062184 3.2488745087
2189 1 14.5015211247 18.7505584653 3.01662201373
1524 1 12.9684051991 19.2654155263 0.498755467795
2190 1 13.9695199812 17.1687134195 0.87430396788
2207 2 15.5903960758 16.7063065548 2.3408430352
2194 1 17.9783068784 16.0264258681 3.26201693843
2199 1 17.6525275895 17.4375700831 1.43004515824
2867 1 19.2065711023 18.1566831481 3.60103949238
3007 1 20.0688615963 17.4565909135 1.42048085401
2888 1 23.2314066628 15.9394541424 3.07537501176
2868 1 22.5040305966 17.4572842129 1.33237541907
2886 1 21.6528443082 18.1932983644 3.54283668609
2861 1 20.7390136854 15.9411925598 3.12764386283
2887 1 24.0750127507 18.2299004897 3.48698556848
3533 1 25.6347000176 15.9461284691 3.05307082112
3539 1 24.931877621 17.4825200008 1.28467185134
3540 1 27.3872720402 17.4781291647 1.28961724246
3558 1 26.4877684952 18.2345289124 3.46968791989
3559 1 28.8759626451 18.1916951283 3.46415977668
3560 1 27.9792015103 15.9151160066 3.06515216798
4205 2 30.1382393101 15.6938515012 3.3055346367
4211 1 29.8751149268 17.4271357224 1.33573330509
4230 2 31.0961053935 18.4663511831 3.48363530742
4212 1 32.3338290127 17.7166497999 1.10682780704
4232 2 33.3517314096 16.4434446906 2.71759466632
4883 1 34.8312982263 17.4370839786 1.08845122603
190 2 39.3647426585 17.4848999133 1.92376254918
4884 1 36.8777829658 17.4450845556 2.34975852869
325 1 37.7164422939 17.5719576491 0.214100374143
5048 1 35.9695751593 19.3128283976 0.218526185893
177 1 39.0947633559 19.3854024724 3.19986780978
181 1 1.57348694743 20.6828273805 2.37671315941
360 1 3.2925821925 22.9804047071 1.92756461871
340 1 2.47649298783 21.4690951187 0.190371096628
353 1 0.888018763717 22.9060365855 1.84627925041
182 1 4.09122094107 20.6947909039 2.3645364002
853 1 6.58071078699 20.7441181757 2.31658164761
1010 1 5.76336275522 23.0354167005 1.89892409696
1012 1 7.38874422046 21.5307751663 0.112504233875
1011 1 4.94309502266 21.4888068494 0.167596170665
854 1 9.04557500146 20.7911830442 2.29835504751
1032 1 8.24386306011 23.0752170831 1.84240520917
1683 1 9.76959998266 21.610258222 0.0881164833924
1682 1 10.7531530077 23.1277438973 1.77221777399
1525 1 11.4679407079 20.9028805611 2.22837189324
2369 1 13.9559526204 21.0653560847 1.86419961614
1704 1 13.3159352662 23.2763999303 1.47620538276
1526 1 15.1421707662 19.8791876656 0.234830603422
2354 1 16.0965994188 22.4266942845 2.15046965908
2197 2 16.3207886729 19.8063531562 2.06171919347
3026 1 18.5912700092 19.6298530037 1.83027775068
2376 2 18.417069043 21.9649816395 2.00517757654
2356 1 17.5185043885 21.2584191395 0.0557230101422
2866 1 21.0215891104 19.6553726636 1.76532377307
2889 1 23.3656324311 19.7697806612 1.71810947369
3032 1 21.6901723669 22.0401800264 2.18082465831
3012 1 20.0781733492 21.2464443205 0.171513248128
3033 1 24.1243532087 22.0563325662 2.10790466904
3538 1 25.7513077275 19.788037413 1.68017245792
3704 1 26.5640593838 22.0290512465 2.14292199764
4210 1 30.6969572219 19.8109717332 1.65177798045
3561 1 28.1846396483 19.7718145502 1.68688548954
3705 1 29.018646397 22.0424757794 2.11771761039
4376 1 31.4983836793 22.0757605932 2.02686488243
4233 1 33.533634194 20.0935367479 1.4548328785
4377 2 34.0339297508 22.5389719452 1.48226234081
5044 1 34.8021622876 21.7444646671 3.53349025295
5037 1 35.7030301518 19.4883799957 2.53784691713
169 1 38.1125993406 19.7819650491 1.00624337615
5046 1 36.2587968885 21.5366294256 1.51819285678
4882 2 38.6314282735 21.5948031606 2.32665436345
343 1 2.506848042 25.2435167132 1.47627791113
366 1 3.15083919558 26.8822308163 3.18406316553
5066 1 0.136368211434 25.102635204 1.51574529711
358 1 1.51475630079 24.3936329132 3.65903395858
1013 1 5.69273191894 26.8813114512 3.21643966194
1014 1 4.91892931465 25.3386215659 1.48999732241
1015 1 7.37428992923 25.3546331058 1.44752306981
1030 1 6.54094534997 24.5762707649 3.65072810096
359 1 4.0671849746 24.5191756518 3.64347128709
1038 1 8.14457137564 26.9001503953 3.19420694938
1685 1 10.5814931113 26.9324381152 3.14032096963
1686 1 9.84912374097 25.3838132786 1.38326170285
1031 1 9.00654518292 24.6086150868 3.59091989767
1702 1 11.4313154918 24.6693340443 3.51348786869
1687 1 12.3508300136 25.449746168 1.32250426522
1710 1 13.0133183404 26.9866367869 3.1366895001
2357 1 15.5155721902 26.8057101139 3.07778945959
2358 2 13.7991900602 24.8062120759 3.41365319705
2517 1 15.3977619584 25.0634269844 1.20544470799
2359 1 17.6457059372 23.8895149616 0.629293821775
2505 2 19.390693045 25.7423122858 0.503029509316
3046 1 17.834046566 26.6356332553 1.75005219245
2374 2 17.0501948066 24.7852612864 3.00258131257
3030 2 20.3050904575 24.1074188807 2.99098396603
3039 1 23.2610663507 23.5625601641 0.380919622827
2364 1 20.7785319484 23.6137417015 0.440004350178
3031 1 22.498055372 24.3260758715 2.55543495266
3056 1 23.207386226 26.5867290602 2.99833953636
3029 1 20.5434486885 26.4801851503 2.80377517256
3037 1 21.7515655943 25.8711368452 0.683429249738
3038 1 24.1150097115 25.8122257658 0.809648635606
3697 2 25.7858372729 23.6041658664 0.493318346374
3701 1 25.6693450214 26.6040993969 3.01321688395
3702 1 24.900865809 24.3247648972 2.60967661143
3703 1 27.3404555661 24.3208386349 2.57089964511
3709 1 26.5241987329 25.8675439314 0.809967295542
4369 1 30.5658174406 23.5933904962 0.286874580151
3710 1 28.9397050253 25.8581391001 0.774237645825
3711 1 28.1528993973 23.5585715781 0.354605767564
3728 1 28.0964013015 26.5981901593 2.99099032343
4373 1 30.5065815472 26.5989380541 2.94993567918
4374 1 29.7769470027 24.3202976374 2.51810050725
4381 1 31.3772117915 25.8620606128 0.739716430022
4375 1 32.2404594274 24.279433671 2.44679638188
4382 1 33.7726823054 25.8941066649 0.705826278138
4400 1 32.8715859887 26.5546834017 2.93992728387
5087 2 35.0968832004 26.0719117523 2.65808819874
5045 1 35.7390950385 24.0186201574 2.25169515132
5055 1 37.7546115179 23.4138327752 0.955893862246
5192 1 36.1593941825 25.9385813153 0.441397177818
5049 1 38.1305346726 23.7061859301 3.16052214819
5041 2 38.8073402561 27.1024900072 0.810636253003
5070 1 37.4855919119 25.9493180107 2.22866335218
347 1 1.62328380394 27.4880184798 1.09194002716
337 1 0.0653551028007 29.3672688643 1.49944932229
346 1 2.53542918536 29.3359028754 2.71027421786
351 1 2.99828132434 29.8684721604 0.513818322948
341 2 0.88575405812 28.1569882629 3.38096149803
507 1 0.765463088287 30.9816051678 0.109684759999
348 1 4.04533748275 27.6134362013 1.02248142202
1009 1 5.59824645721 29.9088906517 0.564755859595
1017 1 4.8469879256 29.138416013 2.77703690167
1018 1 7.28059555616 29.1810754203 2.76175441917
1019 1 6.48571723217 27.6353699202 0.999941092963
1020 1 8.92315022669 27.6550477724 0.970321837673
1023 1 8.06816251412 29.9351457232 0.540001123811
1681 1 10.5279471569 29.9506702971 0.502586370281
1689 1 9.7104274728 29.1887090252 2.73126854047
1691 1 11.3534544575 27.6704576913 0.8969927106
1690 1 12.1425338143 29.1896219996 2.66636791279
1692 1 13.7685501272 27.6007560786 0.891064970721
1695 1 13.0259459787 29.9118761397 0.442688245273
2361 1 14.5676415923 29.1013466481 2.60540382188
2353 1 15.5977212106 29.9936593652 0.377373556778
3035 1 16.0718402937 27.6786544056 0.764237884626
2362 1 19.1962268132 28.791285446 2.86510986534
3198 2 18.0165980104 28.9887526203 0.747027390587
2366 1 16.898214218 29.0154059055 2.73756654696
2381 1 20.1175036347 28.0023280462 0.94748373956
3057 1 23.255789918 30.3610775489 1.68730351929
3034 2 20.966171157 30.1931238642 1.8217735491
3054 1 21.6364764986 28.6659174137 3.41749968883
3036 1 22.4741101449 28.0700869043 1.23601315236
3055 1 24.0997411374 28.8445123632 3.43972140176
3706 1 25.6528424962 30.4080599101 1.69752911304
3707 1 24.8749397292 28.1152005382 1.2264982329
3708 1 27.2964649156 28.1389458252 1.23027323451
3726 1 26.4884049646 28.8878617604 3.44746227479
3729 1 28.0776522716 30.4353110371 1.67794358699
4378 1 30.4824983568 30.427730797 1.61054414346
4379 1 29.7274633452 28.1486236988 1.20493869815
3727 1 28.8773636036 28.8738426139 3.41319096155
4398 1 31.2847912238 28.8716711161 3.34833898172
4380 1 32.1639847201 28.1573484547 1.16432537025
4401 1 32.9137854784 30.4606040016 1.5672603904
5051 1 34.6403995763 28.1772030892 1.14755614394
4399 2 33.6650967463 28.7960837597 3.19125724645
5050 1 35.3021422792 30.4937350606 2.00679809474
5064 1 38.2614552186 27.9200972233 3.38615000219
5206 1 36.0290644548 28.188031765 3.27581672015
5062 2 37.6113856521 30.003637176 2.79353523217
5195 1 37.0752880817 28.536432869 1.0406240582
528 1 3.04432449061 33.7919361506 1.73900192562
5222 1 1.46132171232 31.6959613399 2.25356345982
5052 2 0.627903201885 33.2182258685 0.40583562492
350 1 3.95201774564 31.4683666697 2.22049455905
1021 1 6.41923069364 31.46340076 2.30535748157
1178 1 5.57812423201 33.7598446588 1.83010556569
1179 1 4.89611658483 32.1903766399 0.0607553133154
1180 1 7.27287297672 32.223677285 0.0902917695782
1022 1 8.85939162425 31.455343481 2.31749143576
1200 1 8.02968098664 33.7396997056 1.87841037695
1693 1 11.3052045241 31.4483140286 2.26813972297
1850 1 10.4601314482 33.7228303979 1.85727435845
1851 1 9.67936985436 32.2267753972 0.0844141418154
1694 1 13.732172112 31.3993480216 2.21273763835
1872 1 12.8798361054 33.6940010388 1.81492279148
1852 1 12.1062380483 32.2052943908 0.0516120839254
2522 1 15.2643950929 33.6939885238 1.78050633292
2523 1 14.5278303843 32.2086825363 0.00257352863305
2367 1 18.6269746675 31.2428038567 1.99333659572
2365 2 16.1093329255 31.419174888 2.20649142897
2688 1 17.6504153514 33.5050710825 1.75244277648
3180 1 19.4446702603 32.6200660201 0.280505782638
3200 1 21.3344618743 32.5567028784 2.28022884791
3207 1 23.3153918352 34.0319042858 0.361649672594
2550 2 20.6299244089 34.6355319609 3.49613605107
3194 2 21.1163306072 34.0612190415 0.483261509817
3195 1 22.2702245056 31.855836875 0.0851412027774
3201 1 23.946492258 32.674269585 2.23925708371
3865 1 25.651088573 34.2172026962 0.382366539075
3872 1 26.4112422509 32.7048846504 2.13911135594
3873 1 28.8399841853 32.7378524109 2.08438429566
3879 1 28.0603689078 34.2524067147 0.342019287851
4537 1 30.4966581169 34.2699532869 0.315457623391
4544 1 31.2633953906 32.6941007608 1.96230284162
4545 2 33.8192939894 32.7712166899 1.86025359769
4551 1 32.9286267139 34.3159090443 0.260466858471
5209 1 35.3822568945 34.3124635584 0.0819497538558
4543 1 32.1521047613 34.893057084 2.56169207686
5202 1 38.5524360249 31.7772036554 1.54458206448
5216 1 36.306652249 32.9126810424 1.70268894384
521 1 39.0216029983 34.0634671811 2.25398640645
5362 1 37.8834185292 34.3668792564 0.126663672108
5215 1 36.9205598053 34.950009764 2.5087197022
520 1 37.3460316089 32.1215008762 3.69069258942
511 1 2.46062392723 36.1866365944 1.47231139989
534 1 3.27666666518 37.614776751 3.20618714542
510 1 1.68760961256 38.4267470197 1.15950117662
546 1 1.46875374094 35.2520513828 3.41071698138
506 1 0.896058741307 37.6345459402 3.51194429687
527 1 3.96075494985 35.2923403451 3.53370854087
1181 1 5.71672821965 37.5463087236 3.18526495959
1182 1 4.84260733388 36.0669172515 1.37573906901
1183 1 7.27259844352 36.034485056 1.44711695424
1187 1 6.54511246755 38.3253507934 0.984065677029
516 1 4.12341563646 38.3677285455 0.986117395072
1198 1 6.42381398263 35.2459675021 3.64734597779
1188 1 8.96420249279 38.2977736199 1.03131494034
1206 1 8.13755205853 37.5320883345 3.22841814092
1853 2 10.5972086932 37.4380035496 3.09173475449
1854 1 9.67751448906 35.993725892 1.41579573513
1859 1 11.3990812942 38.309219757 0.97114867932
1870 1 11.2856001229 35.2112510368 3.62171960897
1199 1 8.85329023917 35.241759209 3.66337391554
1855 1 12.1040666948 35.9951787479 1.40511006909
1860 1 13.8396285356 38.2776529546 0.978696224079
1878 1 12.9530255619 37.4985448073 3.1572419704
2526 1 14.5064808334 35.9682870082 1.35260210209
2525 1 15.3515371855 37.4418791942 3.03614599042
1871 1 13.7012658862 35.1873100408 3.57458943642
2527 1 16.8675157473 35.8589957114 1.33263186224
2531 1 16.4084309524 38.2251606883 0.970636444361
2682 2 18.7538857601 37.0060454457 1.26069592742
2530 1 17.954787791 37.5842280996 3.2791938983
2542 1 16.1040196527 35.1845837432 3.51075015534
3215 1 18.4688501912 35.2461744184 3.14493401431
3199 1 22.4866644502 35.0896375809 2.40343297244
3205 2 21.7587538379 36.9338878153 0.902605741781
3224 1 23.1910395688 37.3530919061 3.0118323661
3197 1 20.6138056617 37.2364419909 3.06508309561
3870 1 24.8216574478 34.9765100171 2.56445105806
3871 1 27.2672553865 34.9890018415 2.56492975987
3206 1 24.0403687896 36.5200777724 0.836148219863
3869 1 25.6236839956 37.2860098863 2.99732571702
3877 1 26.4481090173 36.4961595245 0.829768019646
3876 2 27.2266861648 38.8267095698 1.24205742487
4542 1 29.7174122051 34.9716512324 2.55379602424
3878 1 28.882824468 36.5176482295 0.805634870593
3896 1 28.0447793925 37.2805664832 2.99899103289
4541 1 30.4354196859 37.2594736428 2.98869749394
4549 1 31.3343594575 36.5191347204 0.801526863948
4547 1 29.6326093234 38.8136089337 1.23512465771
5214 1 34.5358788483 34.9847995425 2.30188148477
4550 1 33.8122857151 36.5747293658 0.710902252427
4568 1 32.7809321338 37.2248583572 2.91534080984
5233 1 35.0874633477 37.2154537019 2.80167923873
4548 1 32.019583963 38.8409453968 1.19863908925
5217 2 37.2608063828 37.3606404884 2.82669624274
5213 1 36.4623201804 36.3544560762 0.608662879178
5239 1 39.1090787517 36.5825798095 1.6289403342
5220 1 36.8358127577 38.7884662195 1.01533661431
514 1 2.59045055181 39.9295778271 2.78629067701
517 1 1.7356580611 42.1950023673 2.18192136812
519 1 3.43148110008 40.7071922423 0.654670323963
505 1 0.142047811865 40.3444929669 2.60126184523
515 1 1.01911357976 40.6536695046 0.339096869874
518 1 4.22593352566 42.1860892709 2.32034676306
1177 1 5.82912712878 40.6250528516 0.531911078992
1185 1 4.99680543854 39.8640599338 2.73744055704
1186 1 7.40260137962 39.8227007815 2.75828177924
1189 1 6.6458789116 42.1318714068 2.30139273296
1190 1 9.06514780501 42.0942988179 2.32342299443
1191 1 8.23212137058 40.5899846108 0.552419754206
1849 1 10.6628266535 40.6003430312 0.605676542982
1857 1 9.79677214223 39.7926460699 2.78176327293
1861 1 11.4939108766 42.1075753856 2.35416441322
1858 1 12.1939985369 39.7991881687 2.75440438746
1862 1 13.9532224845 42.1124820113 2.38605478573
1863 1 13.1320662622 40.5856648908 0.584218945361
2529 1 14.585575948 39.8013684654 2.73573905011
2533 1 15.6339902654 40.5452270464 0.622933182561
2170 1 17.2924498854 42.6515641721 0.129353941244
2034 1 16.4359938187 42.145608418 2.56251023766
2549 2 16.869696959 39.6488867361 2.68588074226
3202 1 18.244316297 40.753973049 1.42172762676
2548 1 19.1110860087 39.7334387712 3.64043580016
2535 1 19.9614073473 38.861209189 1.28648533111
3204 1 22.3845127563 38.9958034869 1.30259365625
3225 1 23.1897338419 41.1693999643 1.71257938108
3222 1 20.7406677239 41.0009499897 1.6559884752
3203 1 21.5383220463 39.5316999887 3.50788502073
2691 1 22.2921993586 42.6327974676 0.0854998418745
3875 1 24.8334190061 38.8463756425 1.27296447507
3223 1 24.0208692305 39.605587329 3.44696477718
3874 1 25.6119571155 41.1434936872 1.6886508027
3894 1 26.4403262459 39.5979296758 3.44180523849
3897 1 28.0214432576 41.1304312895 1.67657010591
4546 1 30.4375022994 41.0842799747 1.66569608201
4566 1 31.2376623161 39.5598209906 3.42421163053
3895 1 28.8450524214 39.590253718 3.43481212188
5219 2 34.3785177417 38.9034909114 1.13652090967
4569 1 32.8885570754 41.1392077042 1.64519446764
4567 1 33.6040824826 39.5260656866 3.3098951916
5218 1 35.3821245969 41.0322448945 1.56799751743
513 2 39.0603532687 39.0943043089 0.83192949441
5238 1 37.8490796092 41.1220135666 0.948712246895
5237 1 37.2065312371 41.2347717114 3.4357103222
5232 1 35.9272002144 39.3707816322 3.25493993936
22 2 1.92529547981 3.22997741956 3.73471371324
17 1 0.3985864752 1.05138758314 4.14212972301
18 1 2.7027101198 0.929290436038 4.03991397228
42 1 3.4502824804 2.47108114978 5.78789834483
35 1 1.02299928834 2.53207033853 5.83031461875
531 1 1.61654509185 0.156325969633 6.24138764371
36 1 4.16499383524 0.176991353548 6.27768502345
689 1 5.0802213583 0.957640883419 4.07014750789
688 1 5.86658536318 2.45713472079 5.83273846471
690 1 7.47219071484 0.923570458311 4.06742206763
707 1 6.60824977281 0.149988238893 6.2823125496
714 1 8.282213209 2.43461327401 5.83250955436
1360 1 10.6966847166 2.424379479 5.83580240198
1361 1 9.8806850639 0.902843810977 4.08062813404
708 1 9.02971158695 0.13333563848 6.28312848658
1379 1 11.4502503946 0.111452128732 6.288025413
2033 1 14.7406692421 0.864209888053 4.16900478694
1362 1 12.3006818962 0.912881929385 4.12043241119
1386 1 13.0940708911 2.39343166167 5.86702862337
2036 1 15.4558238084 2.34795915506 5.96233214338
1380 1 13.8625057878 0.0782821361323 6.34065647277
2058 2 17.0780372519 0.853308029911 4.70319611499
2694 1 19.2988320275 0.872618362917 4.63559841067
2038 1 17.820199513 2.43539229749 6.18310113335
2704 1 18.8018943987 0.396984723107 6.98017660168
2040 1 19.191420713 3.87001111581 4.82990372212
2534 2 21.0991232674 2.06353994921 4.35621147865
2692 1 20.1835925255 2.36299693606 6.46363682127
2707 1 22.6074774888 2.23820240022 6.299725232
2715 1 23.267437323 1.41485167905 4.23931147118
3364 1 25.7086967604 1.42166980087 4.37574738665
3378 1 24.9732247293 2.22734966559 6.54241597123
3379 1 27.3401062569 2.22501782587 6.56745363466
3385 1 26.534801233 3.74179550169 4.78504150171
2714 1 24.1132051758 3.78228119667 4.80200751518
3386 1 28.9759421235 3.7720617958 4.77138749977
3387 1 28.1169841501 1.47428219254 4.33609395399
4036 1 30.5378450482 1.46230495513 4.35250329659
4050 1 29.7200477417 2.2285530673 6.52812448245
4057 1 31.4970515567 3.78564119472 4.68738712667
4051 1 31.9973890449 2.41872416933 6.55001106933
4059 1 32.9244811439 1.35896999616 4.50315461196
4708 2 35.2228139971 1.37424214104 4.13672034733
4722 2 34.1397982676 2.21318184968 6.93967295395
4058 1 34.2557522275 3.55314244445 5.14392107579
4729 1 36.4859264043 3.48154429056 3.8317785661
4725 1 37.541716525 1.28540481644 4.02071465752
4728 1 36.2666595732 2.10620609346 6.12837550439
6 1 38.0444739619 3.46275991894 5.67722803924
4731 2 38.4585867173 1.18518560525 6.16806525804
10 1 1.92158708951 6.99782828174 4.76670157461
21 1 2.77771990817 4.77898819494 5.33347598185
4751 1 1.17013572367 6.25110813776 7.00410102677
4730 1 0.455833416625 4.73737945553 5.22482169668
47 1 3.5408784402 6.28346967354 7.06659978826
29 1 4.31574261184 7.04502558765 4.8638218361
692 1 5.13017776473 4.75350686768 5.35679540285
693 1 7.51882632501 4.73355183278 5.38510167775
700 1 6.72963869641 7.03068748425 4.91471747348
691 1 5.95314051321 6.2557116535 7.12373171527
701 1 9.1299258518 7.02153420017 4.94077951814
719 1 8.37909127757 6.23838510038 7.14751521189
1363 1 10.8084323344 6.18766310051 7.1503559484
1364 1 9.90459090306 4.72000183341 5.38910520394
1372 1 11.4904410725 6.99017978649 4.92780415216
1365 2 12.2228419301 4.71601978673 5.31096163977
2035 1 14.5367070989 4.60970551037 5.5348006241
1373 1 13.7965409392 6.87987194536 4.98128493046
1391 1 13.2934188056 5.98653939365 7.23135462534
2054 1 15.6185260911 6.5965693258 6.76028253399
2062 1 17.6977835017 6.4734188046 5.35322605788
2039 1 16.815946479 4.41929028572 5.40181909212