ITEM: TIMESTEP
14000
ITEM: NUMBER OF ATOMS
10200
ITEM: BOX BOUNDS pp pp pp
0.0 91.5382635842
0.0 28.55
0.0 45.7691317921
ITEM: ATOMS id type x y z
8 1 1.53937120092 1.873632437 1.0514909541
549 2 3.07628160358 3.09952354942 2.2982800638
39 1 2.82114187911 0.59600442593 2.58257677555
40 1 4.45138146764 1.98355524467 1.0431881806
72 1 7.09122651572 2.1075538661 1.30660401335
581 1 5.58112896771 3.53239752189 2.6424767875
71 1 5.6455470282 0.610578509071 2.69191913674
104 1 9.93147931064 2.11794155515 1.46834332943
613 1 8.42279401636 3.54329844462 2.81846968293
103 1 8.42581535795 0.686086098387 2.82590145455
136 1 12.7798237625 2.12649710786 1.63185345751
645 1 11.2722654291 3.55164309666 2.97619772503
647 1 11.441515952 3.55431219521 0.123291428002
677 1 14.1232801245 3.55559186632 3.14094477329
679 1 14.2884743552 3.55895511846 0.291843536349
137 1 11.4399965809 0.695333875817 0.119584892126
167 1 14.1244896859 0.702059071388 3.14013861006
169 1 14.2894432781 0.702857346129 0.289834777797
135 1 11.2724540534 0.696297273851 2.97729460669
168 1 15.6321709571 2.13029551073 1.80113611584
711 1 17.138588254 3.56101916931 0.461313766305
709 1 16.9764250736 3.55336799295 3.31372203259
199 1 16.9804805893 0.702125346903 3.31105529545
201 1 17.1398832285 0.706810109738 0.458580100673
200 1 18.4809258054 2.132508987 1.9680161813
232 1 21.3281747508 2.13242217212 2.13557104164
743 1 19.9891385108 3.5617187422 0.631149804045
741 1 19.8211996421 3.55276863373 3.48160604112
231 1 19.8100190813 0.717576400068 3.46008701165
233 1 19.991052713 0.708122094692 0.628320935757
264 1 24.1763477808 2.13360055732 2.30948338612
775 1 22.8419450641 3.55939068729 0.800419031943
773 1 22.6583922053 3.55174470029 3.6524675535
265 1 22.842507557 0.709485420698 0.797755153519
263 1 22.6737090901 0.719751159258 3.63147965955
297 1 25.6954169279 0.712761447606 0.968635807375
807 1 25.692584417 3.55721744646 0.970956660789
296 1 27.0263576597 2.13827783251 2.48761581145
839 1 28.5328871051 3.56003526607 1.13590591889
329 1 28.5362072721 0.717686380012 1.13441176283
328 1 29.8701183324 2.15098947308 2.64933289358
360 1 32.6872112564 2.14722726782 2.80797672991
871 1 31.3742419027 3.56760961427 1.29835914723
361 1 31.3695020089 0.718356283117 1.29357482432
392 1 35.494086065 2.17953679331 2.97931569999
394 1 35.7347356818 2.1672809703 0.117069099588
903 1 34.1988921114 3.58505454809 1.46077782356
393 1 34.2053084763 0.729706684924 1.4578299259
426 1 38.5592825837 2.22230147046 0.261219112038
935 1 37.0433172411 3.62246387049 1.62775418051
967 1 39.8832365116 3.58627225937 1.78471226145
424 1 38.2646029171 2.23220052822 3.19856990154
457 1 39.673848873 0.85830261671 1.87405470965
425 1 37.0361496417 0.761208627978 1.63364871351
999 1 43.4898264403 1.70756308583 2.48574224696
456 1 41.0047462518 2.18921161869 3.36627404563
1510 2 42.4540861605 3.61387457804 2.25574062802
458 1 41.580200364 1.93795879343 0.511947135627
5650 1 47.2009962545 3.50942040263 1.72147821857
5649 1 45.7863119445 2.38147433754 3.28839593707
5651 1 45.5074048009 1.85402864908 0.784835611111
489 1 45.1991022492 0.0853519110649 2.21206139228
5140 1 47.3728039141 0.700460849116 1.80406993092
1000 1 44.4851699731 4.07381020587 0.980628297734
5173 1 50.0869438812 0.732625798316 1.68451069362
5682 1 48.7253707946 2.15991939829 3.18374298637
5619 1 48.5376379534 2.19208387958 0.25118698559
5683 1 50.0674014465 3.56166946703 1.67953171122
5205 1 52.9563914148 0.702800581515 1.58193515024
5714 1 51.5861199511 2.14226701335 3.06487702108
5746 1 54.4343874259 2.13569465868 2.92708341848
5652 1 51.4792922761 2.1472318823 0.241804085558
5715 1 52.9397006656 3.57489878419 1.57641136509
5684 1 54.2810209587 2.13725325178 0.0697706347162
5237 1 55.7758540754 0.69662903823 1.41308183285
5778 1 57.2680175244 2.12750860982 2.76261842704
5747 1 55.7696510516 3.56492247347 1.41819960712
5269 1 58.6020787814 0.68913468195 1.24524353821
5301 1 61.4458770343 0.682506338036 1.07486170253
5810 1 60.1101079332 2.11848376246 2.58975274412
5779 1 58.6085609156 3.55549056777 1.25427895673
5811 1 61.4550274951 3.54684027288 1.08236332049
5331 1 64.4734341677 0.684213877256 3.74743898526
5333 1 64.3011811577 0.685208989166 0.901462139051
5842 1 62.9597657369 2.11288245402 2.41376550312
5841 1 64.4725003561 3.54187537989 3.74785023392
5843 1 64.303342432 3.54248994883 0.903946531412
5875 1 65.8116243498 2.11376908177 2.23526284539
5364 1 67.3226817838 0.687138288519 3.56905036304
5366 1 67.1524743737 0.689166005118 0.720900506606
5908 1 68.6589896749 2.11745479684 2.05366562418
5874 1 67.3216756648 3.54149341928 3.56835366538
5876 1 67.1521453675 3.54363654113 0.722034769381
5397 1 70.1650904796 0.69207401753 3.38694262274
5429 1 72.9963717002 0.695521269768 3.20328344413
5940 1 71.505334633 2.13041871396 1.87401503726
5334 1 70.000470616 0.695708586614 0.539505374297
5367 1 72.8453724332 0.701979838189 0.36259968395
5907 1 70.1630978336 3.54824861984 3.38520212665
5939 1 73.0019284528 3.57690017396 3.20216587009
5844 1 69.9988247504 3.54878003629 0.540453560169
5877 1 72.8558954959 3.5706847504 0.375063727686
5461 1 75.8077585876 0.70178076074 3.01048346466
5972 1 74.3401311216 2.14865788962 1.70052561273
5399 1 75.6908748907 0.700313279907 0.198211518002
5971 1 75.8409078665 3.58931335678 3.03095901069
5909 1 75.6944617412 3.56316839221 0.207834485519
5493 1 78.703466492 0.695195920462 2.93635548963
6004 1 77.1991390656 2.12204552951 1.55830255806
6036 1 80.0275351901 2.09274849168 1.41413231675
6003 1 78.7309757697 3.51187418331 2.92647479752
5941 1 78.5338147715 3.52651425806 0.0248463038429
5431 1 78.5244864451 0.687454511812 0.0313859784347
6068 1 82.7064392473 2.09800332062 1.22525222596
5525 1 81.5559690705 0.702851321769 2.80591950553
6035 1 81.5171263435 3.51576543299 2.81283390313
6608 2 84.2013157099 3.55891975391 2.59263435111
6610 2 87.4648015247 3.76851171599 2.84974714572
5590 1 84.5199617371 0.964588725387 2.39228153851
5527 1 86.3078153067 1.76599693822 0.128300766816
6117 2 87.6721187396 0.323938239358 1.50595381987
5609 1 90.5751380354 2.24077471052 1.06557368584
5608 1 91.4878798284 0.628349798282 2.48257750267
6097 1 89.8803894366 2.50222513406 3.63044188975
518 2 1.46303647362 5.45437827938 0.720763905931
1059 1 2.66477740126 6.61762387818 2.47781870258
1028 1 1.25199993864 7.98125927751 0.582697887477
7140 1 0.116796954117 6.47394335814 2.53673009538
550 1 4.19049110736 5.0137654969 1.16675962957
582 1 7.09077245535 4.97684552979 1.31745861562
1060 1 4.31026556326 7.8314593837 1.14087606502
1091 1 5.5531036124 6.37908507851 2.66550251712
1092 1 7.10243783259 7.82050572326 1.30920379346
614 1 9.93458516844 4.98039823894 1.47218992536
1123 1 8.42408632345 6.4028031047 2.82262682043
1124 1 9.92921827406 7.84465982572 1.47090787499
646 1 12.7788345694 4.98541903493 1.63344536039
1155 1 11.2703217774 6.41411568151 2.97690334044
1156 1 12.7748089371 7.84780145389 1.63307578354
1157 1 11.4400272001 6.41703650679 0.124143134513
1187 1 14.1196093125 6.41554416181 3.13992957918
1189 1 14.2860171274 6.41789354825 0.292952819237
678 1 15.629653692 4.98582595826 1.80239978553
1188 1 15.6259322388 7.84578723214 1.80109395447
1221 1 17.1369220663 6.41671800139 0.463562636758
1219 1 16.9695814271 6.41419115558 3.30989207707
710 1 18.4789505483 4.98582042748 1.97240706899
742 1 21.3277852631 4.98515350602 2.14218893267
1220 1 18.4765185069 7.84366100959 1.97204207162
1252 1 21.3274010187 7.8406032339 2.14439932945
1253 1 19.988320955 6.41498332349 0.634948557323
1251 1 19.8169558728 6.41389611574 3.48061759659
774 1 24.1754417152 4.98086312672 2.31522319917
1284 1 24.1766631487 7.83582879643 2.31816115898
1285 1 22.8407760711 6.41125282243 0.805924488185
1283 1 22.6638579766 6.4113291514 3.65393219212
1317 1 25.6894971208 6.40683023414 0.977734208857
806 1 27.0242849429 4.97824775268 2.49120302535
1316 1 27.0218909204 7.83093803531 2.49269409336
1349 1 28.5305662772 6.40672550639 1.1440227778
838 1 29.8668414684 4.97794829165 2.65427963115
870 1 32.6821533915 5.00004672373 2.81305727477
1348 1 29.8489093959 7.84377490475 2.65039998676
1380 1 32.6814632823 7.84683656776 2.81244395949
1381 1 31.365057808 6.41562609445 1.30220765099
902 1 35.5036277874 5.01089361071 2.98014073293
904 1 35.7517506448 5.01987883486 0.119534812984
1412 1 35.5204555025 7.81044910543 2.99909789604
1413 1 34.2082252456 6.41966551487 1.46515963003
1414 1 35.7594295926 7.81063042815 0.11439227084
1445 1 37.0911018823 6.41870561654 1.62325957447
934 1 38.3660963465 5.03521256453 3.14493960169
1444 2 38.2744863395 7.81002480855 3.25825841574
1477 1 39.9591217926 6.43724035819 1.7691602157
936 1 38.664270661 5.01362963494 0.270172081041
1446 1 38.6316697624 7.84345927839 0.224270687154
966 1 41.1661539068 5.09978005652 3.3179097644
1509 1 42.8091130361 6.62056530982 0.745889831264
968 1 41.5915448195 4.69551489754 0.408838123091
1511 2 41.8804002101 7.65658753225 2.45272376132
6159 1 46.1612695202 4.98962711224 3.29048741216
6160 1 47.2218640981 6.42259786491 1.71298169305
6669 1 46.0230815126 7.84153538271 3.31139014575
6161 2 44.7149695332 6.19547366495 2.14222628883
6671 1 45.2900339139 7.7322379988 0.373564174952
6192 1 48.7074405791 4.97322555083 3.16257623279
6193 1 50.0396523694 6.39443486134 1.65906502052
6129 1 48.5241130129 4.93605994737 0.253766633969
6702 1 48.769778794 7.83178701192 3.15151449897
6639 1 48.50850022 7.80274023414 0.244294295499
6224 1 51.5681488272 4.99120389024 3.05474185256
6225 1 52.914607539 6.42166294594 1.55961257144
6256 1 54.4236889858 4.9978403142 2.92523953676
6162 1 51.4309010902 5.00062327887 0.211394888418
6734 1 51.5579343337 7.83029386475 3.04345459761
6766 1 54.4114485152 7.84099971806 2.91869213408
6672 1 51.3893949322 7.8359657122 0.181954413084
6194 1 54.2668727942 4.99656748719 0.06239942357
6704 1 54.2512488567 7.84345512611 0.0548428626713
6257 1 55.7615838009 6.4186580106 1.41380063535
6288 1 57.2656122065 4.98996467493 2.76558198525
6798 1 57.261778387 7.8391679693 2.76452170862
6289 1 58.6092052713 6.41164425878 1.25421020727
6320 1 60.1132249768 4.98071856847 2.59448272636
6321 1 61.4583593201 6.40527754591 1.08331052891
6830 1 60.11344558 7.83537614124 2.59476940564
6351 1 64.4748630417 6.40131325392 3.74795535041
6352 1 62.9636035491 4.97389562252 2.41693962383
6353 1 64.3072189135 6.40088463764 0.904625043516
6385 1 65.8128201868 4.97039520159 2.23576523404
6862 1 62.9660694865 7.83138713695 2.41697237963
6895 1 65.8161491424 7.82859695144 2.23486264334
6384 1 67.3214577479 6.39923137998 3.56605638515
6386 1 67.1538445654 6.39878016518 0.721694928176
6418 1 68.6592808128 4.97264621462 2.05393520057
6928 1 68.6635706452 7.82493780088 2.0527456765
6417 1 70.1637941425 6.3999001058 3.38310009088
6449 2 72.8784331373 6.3983194561 3.2132431324
6450 1 71.4900306808 4.96644214591 1.86142267318
6354 1 69.9996003391 6.39834486259 0.540793897685
6387 1 72.8561703691 6.39568222257 0.379942382588
6960 1 71.4994533716 7.8299642549 1.86193972552
6481 2 76.0168004278 6.37770800389 3.03907118494
6482 1 74.3559748233 5.00397351696 1.71814329546
6419 1 75.7113766992 6.38224663822 0.206057102299
6992 1 74.372473804 7.78157195157 1.72334582422
6513 1 78.723822933 6.37017981559 2.89298818081
6514 1 77.2349127079 4.9430392947 1.53354836348
6546 1 80.0340154177 4.94156511688 1.38844286668
7024 1 77.231892789 7.80908827793 1.51797189342
7056 1 80.0479238641 7.80129557328 1.35827955048
6451 1 78.5458699086 6.37726797494 0.0128116323058
6545 1 81.5301269141 6.37293877649 2.73363303662
6578 1 82.7759868631 4.90609610912 1.2009546072
7088 1 82.8395348479 7.76084116365 1.16011503886
6577 1 84.3400010421 6.30376382344 2.49119549108
6609 1 85.6187481778 4.56525028313 1.12723613923
7120 1 85.6113595247 7.53963411232 0.934757145706
7118 1 85.5960204073 7.92324514062 3.69749379217
6100 1 87.2261837094 6.14861524445 2.10851516761
6630 1 89.443451725 7.26653428345 3.09526911523
7137 1 90.1087699574 7.97028697725 0.920913055781
6119 2 89.6763322785 5.74595810929 1.20019162221
1569 1 2.79129458093 9.1590611495 2.48808923334
1539 1 1.8269765132 10.4530406036 0.776071657942
2079 1 2.82443547313 12.0537268415 2.42978247336
1537 1 1.2620877618 10.7036338823 3.75553024007
7648 2 0.342462694991 11.7281652436 1.64182550639
1570 1 4.31500893277 10.6500257207 1.12117567495
1601 1 5.6168104657 9.24409364445 2.65790056494
1602 1 7.09136918215 10.7132311086 1.30837119265
2111 1 5.56559021027 12.1471941808 2.67294611612
1633 1 8.41857170887 9.27305636822 2.81967428458
1634 1 9.91865203709 10.7134288738 1.46826290597
2143 1 8.40750078518 12.147366864 2.82187676233
1665 1 11.2643982975 9.27842240474 2.97520644746
1666 1 12.7710481105 10.708662015 1.6328626721
1667 1 11.4326429047 9.28055590765 0.123495250188
1697 1 14.1164864313 9.27645464188 3.1391620506
1699 1 14.2830479689 9.2781774857 0.293057249548
2175 1 11.260704601 12.1398108442 2.97550344853
2177 1 11.4290854712 12.1415029023 0.124502481396
2207 1 14.115670596 12.1352324505 3.13980445179
2209 1 14.2819834079 12.1369364468 0.293809460803
1698 1 15.6247038567 10.7053906462 1.80127026363
1731 1 17.1355615056 9.27529632125 0.464646403775
2241 1 17.1369774929 12.1341586285 0.466921584029
1729 1 16.9667314227 9.27357246289 3.3087851908
2239 1 16.9681516678 12.1317434995 3.31008844122
1730 1 18.4765435076 10.7016285115 1.97373163501
1762 1 21.3274163617 10.6972756995 2.14816474094
1763 1 19.987453172 9.27238603019 0.63819533464
2273 1 19.9887718372 12.1303920691 0.641499871523
1761 1 19.8160696217 9.2699485622 3.48158472485
2271 1 19.8174660817 12.1260877164 3.48419167005
1794 1 24.1756838146 10.6947052848 2.32323072088
1795 1 22.8392583554 9.26873596162 0.811540709978
2305 1 22.8381265322 12.1268486845 0.816011237322
1793 1 22.6649787286 9.26558904898 3.65624986992
2303 1 22.6654177261 12.1218765353 3.66077088805
2337 1 25.6838292833 12.1268357529 0.989293335901
1827 1 25.6866074174 9.26625574824 0.984251035655
1826 1 27.0167454349 10.6953166766 2.49594376735
1859 1 28.5251495263 9.27028582684 1.14869226059
2369 1 28.5280841747 12.1257336467 1.15814371622
1858 1 29.8549976718 10.6939305556 2.66446247439
1890 1 32.6948687378 10.6835635269 2.83668851256
1891 1 31.3688089746 9.27015383389 1.31107270119
2401 1 31.3773129183 12.1175140519 1.32501070566
1922 1 35.4971262505 10.6369285288 3.03634144741
1923 1 34.2164951426 9.23956646231 1.48316427077
1924 1 35.7444783178 10.6352916475 0.155158967734
2433 1 34.2226798293 12.1032317398 1.49627044278
1955 1 37.0272470893 9.16433337989 1.63305584133
1954 1 38.0733712315 10.5832628835 3.20372223205
2465 1 36.8873138623 12.0822089145 1.70697889935
1956 1 38.6173519242 10.6383341609 0.499802277603
1987 1 39.9995842098 8.94637826491 1.80750500389
1988 2 40.1297686004 10.9813483964 2.61363000794
2019 1 42.759626096 9.22148962229 0.646382421559
2497 2 42.7889798467 11.9573347841 3.27833509184
2530 1 44.1256172135 11.8806565753 1.57538937986
2020 2 44.6711280789 9.46765042422 2.167421858
7179 1 46.2130756246 10.8016731157 3.2190974691
7181 1 45.6631172172 10.5050572779 0.373163005
6670 1 47.1891351573 9.06518238465 1.70835807701
6703 1 50.0503159192 9.23880187101 1.6268889482
7212 2 48.7578142579 10.5191777959 3.0825595453
7149 1 48.4223629567 10.7403506218 0.399088377376
7213 1 50.0978466549 12.0960188976 1.70371447943
6735 1 52.8964167308 9.25779848166 1.5479640314
7244 1 51.5562207363 10.6597482133 3.04660679808
7276 1 54.4104758442 10.6717391838 2.91582314325
7182 1 51.374146494 10.6923919734 0.192082179235
7245 1 52.9036416459 12.0869478456 1.55725349819
7214 1 54.2452103141 10.6797861761 0.0519546954625
6767 1 55.7560394109 9.25976586041 1.40933262255
7308 1 57.2586860113 10.6812707013 2.76319218643
7277 1 55.7533370815 12.0996244183 1.41016469982
6799 1 58.6075416955 9.26075943805 1.25260955817
6831 1 61.4592185587 9.25967432652 1.08274105153
7340 1 60.1116445747 10.6851580628 2.59413674851
7309 1 58.6034979835 12.1082540998 1.25238744266
7341 1 61.45772239 12.1113268954 1.08240531915
6861 1 64.4773651495 9.25828290001 3.74696343812
6863 1 64.3103057893 9.25761041687 0.904195727922
7372 1 62.9669302024 10.6855515534 2.41630938751
7405 1 65.8207029214 10.6845185534 2.23413056586
7371 1 64.4791822146 12.1119916204 3.74594670498
7373 1 64.3122754033 12.1116771973 0.904167555605
6894 1 67.3274993898 9.25633078143 3.56401991111
6896 1 67.1599196956 9.25439642808 0.721703148683
7438 1 68.6719945677 10.6806053022 2.05129948465
7404 1 67.3343254802 12.1110972093 3.56325368379
7406 1 67.1660985381 12.1095148498 0.722137762006
6927 1 70.1739587887 9.24957222339 3.38052483362
6959 1 73.0274051244 9.22035001065 3.20018754209
7470 1 71.5251252838 10.6623651713 1.87193883508
6864 1 70.0090533976 9.24643253902 0.540571022495
6897 1 72.8724067302 9.21801052388 0.376496959241
7437 1 70.1879151846 12.1044177519 3.38109816937
7469 1 73.031723328 12.0865100621 3.20051908723
7374 1 70.0201696223 12.1015142942 0.541336714482
7407 1 72.8656571071 12.0841785483 0.359569900644
6991 1 75.8798317897 9.20556327019 3.03459518684
7502 1 74.3732114937 10.6395355751 1.70168997448
6929 1 75.703302505 9.20758709366 0.200374610077
7501 1 75.8737771585 12.0784295391 3.02589857903
7439 1 75.7079828119 12.0796455745 0.183954858666
7023 1 78.7240559824 9.2216736788 2.86777565434
7534 1 77.2130703386 10.6447525132 1.52493542118
7566 1 80.0520431574 10.6544895504 1.35082127802
7533 1 78.7199302893 12.0779785913 2.86859887677
6961 1 78.5472052346 9.22663072725 0.00247102266238
7471 1 78.539861769 12.0763305595 0.000647717485626
7055 1 81.5779654857 9.23098308639 2.69534638774
7598 1 82.8416196829 10.716145736 1.19847366635
7565 1 81.5643997737 12.0841707353 2.71649835162
7597 1 84.5746992925 12.1427093609 2.69581525489
7087 1 84.3901783106 9.30226638054 2.15652177234
7630 1 85.7644931099 11.1165569124 0.680576641467
7628 2 86.3433910186 10.2902907254 2.88433422118
7119 2 87.9377163385 8.29460501324 1.15920236573
1538 1 91.4952308061 9.09209920981 2.49313032581
7568 1 88.365918048 10.4572589364 1.11576291735
7139 1 89.9606848984 11.121760682 2.79896592487
7090 1 91.0547317895 10.017119714 0.195977393058
2589 1 1.67672607168 13.4789960248 0.692521675172
2557 1 2.68723762224 14.8349888678 2.42676365835
8159 2 0.654072690985 15.8882283716 3.29106709934
2591 1 1.40325771795 16.2831706516 0.958738813945
2080 1 4.283528341 13.5572362434 1.13277907245
2112 1 7.06888781847 13.5907420099 1.30987867515
2621 1 5.53535386009 14.9663748898 2.72166783007
2144 1 9.91439022557 13.5763521923 1.4686397331
2653 1 8.41233146915 14.9862361979 2.84665396678
2176 1 12.7702517765 13.5669532065 1.63391204679
2685 1 11.2629267443 14.9931935492 2.98273862624
2687 1 11.4276943701 15.0012958886 0.12635505649
2717 1 14.117839685 14.9904324076 3.14295145284
2719 1 14.2835248259 14.9928826169 0.295757381668
2208 1 15.6261290203 13.5626053084 1.80304684576
2751 1 17.1400123062 14.9907324754 0.469990135128
2749 1 16.9714235051 14.9881043347 3.31250697076
2240 1 18.4808697997 13.5607500115 1.97758820907
2272 1 21.3291119382 13.5548472031 2.1526631064
2783 1 19.9958010688 14.9922790705 0.649647533103
2781 1 19.8267660043 14.9876681566 3.48978596363
2304 1 24.1731634632 13.5526324883 2.32895752643
2815 1 22.8409615125 14.9882392311 0.826146471502
2813 1 22.6536074166 14.9675058322 3.64960499984
2847 1 25.6786450654 14.9863250176 0.999121674367
2336 1 27.0158496953 13.5549228817 2.50232512519
2879 1 28.5241278527 14.983739494 1.16676091379
2368 1 29.8560414288 13.549763672 2.67167992608
2400 1 32.6965499116 13.5363362183 2.84398426786
2911 1 31.3790650408 14.9683657303 1.32816409845
2432 1 35.5016775515 13.5435252463 3.03716739923
2434 1 35.7684880697 13.534011868 0.143030290381
2943 1 34.2309258482 14.954483507 1.48828459423
2975 1 37.0511947991 14.9402497818 1.67012992741
3005 1 38.2394114523 13.5466027026 3.22806817685
2498 2 38.4474568064 13.2559247512 0.453229322217
2974 1 38.3522523383 16.2558288972 3.27081099839
3039 1 43.4224614159 14.0721591568 2.85913068992
3009 2 41.1192265875 14.3600068244 1.66496128487
3040 1 43.1653089003 15.7676526466 1.08211500388
2494 1 40.9819844845 16.1908175828 3.27283849168
3008 1 42.4414582171 13.7225507595 0.0449449894417
7180 2 46.5804797835 12.4525827738 1.28675580651
7689 1 46.0519907027 13.441210431 3.32323474926
7690 1 47.2708296473 14.8714725313 1.74263985902
7691 1 44.9947115634 14.0868919678 1.02719415129
8199 1 45.8179182392 15.9856887268 3.2103944761
7722 2 48.8904577862 13.6390171176 3.30229234265
7723 1 50.1078370136 14.8706528266 1.66267692262
7659 1 48.5404391052 13.4811798027 0.245079221651
8232 1 48.8167425776 16.2361060745 3.12929376883
7754 1 51.5851625746 13.483195773 3.07551345692
7755 1 52.9100574123 14.9130148175 1.56683781231
7786 1 54.4128559059 13.5105446402 2.92441972779
7692 1 51.383709636 13.4788896444 0.180228908741
7724 1 54.2447866647 13.5128098277 0.0532612917105
7787 1 55.7469597419 14.9455626465 1.4125383061
7818 1 57.253803961 13.5268566156 2.76386920904
7819 1 58.598720828 14.9565485158 1.25270640395
7850 1 60.1083254469 13.5339983654 2.59360869171
7851 1 61.4553979692 14.9618941927 1.08250790814
7881 1 64.4793426092 14.9640736128 3.74535984873
7882 1 62.9663737516 13.537324396 2.41587105577
7883 1 64.3123511266 14.9640841316 0.90476347869
7915 1 65.8238049455 13.5379551025 2.23429627177
7914 1 67.3375609191 14.964320896 3.56388572128
7916 1 67.1686230753 14.9637451949 0.723938981199
7948 1 68.6798997122 13.5354574252 2.05261384331
7947 1 70.1938509089 14.9628052724 3.38434834145
7979 1 73.0490710108 14.9601317644 3.20923659118
7980 1 71.5325234452 13.5297773527 1.87293370725
7884 1 70.0231890971 14.9625028685 0.544521139299
7917 1 72.8722183593 14.9625028809 0.36741594041
8011 1 75.8387963762 14.9043807352 2.99652183188
8012 1 74.3623730707 13.5079302917 1.68412927264
7949 1 75.7197256738 14.9614732679 0.203592840861
8043 1 78.7216264936 14.9228321212 2.86715898179
8044 1 77.2211186089 13.5068594821 1.5199040102
8076 1 80.0320501421 13.5107786834 1.36999630729
7981 1 78.536351738 14.9643617133 0.0320188128862
8075 1 81.5785838811 14.9744668145 2.67315743717
8108 1 82.8016239518 13.5421160486 1.21848520345
8107 1 84.1361313803 15.0860262409 2.44036730127
8139 1 87.5530051117 12.3229527339 2.5177998728
8140 1 85.4023141632 13.6033912319 0.948994320772
8648 2 87.3122709789 14.6200529027 1.52022776274
7599 1 87.5576202609 12.7818400142 0.157429606843
8158 2 89.8395548787 13.3590948353 3.09145798187
8668 2 88.7849889542 16.2762253948 3.67540463959
3099 1 2.59856688764 17.6392221932 2.69309076937
8669 1 1.3617428331 19.2315761696 1.15256269656
3067 1 1.40512088819 19.4797298363 3.78648546963
2590 1 4.19976739669 16.3790091473 1.26481154394
2622 1 7.08078683817 16.4018471421 1.37153310242
3100 1 4.18345475096 19.2683533258 1.31574062583
3131 1 5.55119406767 17.8428176093 2.73305172304
3132 1 7.09699409987 19.2842789211 1.39381604148
3133 1 5.72975634793 17.8341267412 0.0387915790817
2654 1 9.91557713467 16.4229992739 1.4822301039
3163 1 8.41996099199 17.843508082 2.85701834136
3164 1 9.91941557675 19.2726749494 1.48564625077
2686 1 12.773162649 16.4198652631 1.63887178476
3195 1 11.2669648939 17.8465787199 2.98719442487
3196 1 12.7765172568 19.2720110099 1.63984983052
3197 1 11.4290370933 17.8477630164 0.133594612086
3227 1 14.1214240105 17.845228936 3.14523425452
3229 1 14.2865825317 17.8450573262 0.298284802968
2718 1 15.6289122586 16.417159829 1.80583547383
3228 1 15.6323847494 19.2711617129 1.80672277372
3261 1 17.1422191358 17.8431281569 0.470916233498
3259 1 16.9742912205 17.8435815814 3.31428344626
2750 1 18.4855574138 16.4172700128 1.98258603643
2782 1 21.3459988897 16.4225408545 2.17148927804
3260 1 18.4871768302 19.2677821364 1.98209750111
3292 1 21.347090309 19.260011151 2.16934475037
3293 1 19.99820234 17.8418399346 0.650518813186
3291 1 19.8364258941 17.8423790485 3.4963043476
2814 1 24.1713232764 16.4127405317 2.35008192278
3324 1 24.1726231319 19.2655683499 2.34792719138
3325 1 22.8487526839 17.8401805642 0.835006246243
3323 1 22.6879924275 17.8409634396 3.68604607937
3357 1 25.6719496162 17.8365674284 1.00718358706
2846 1 26.9963010846 16.4172603557 2.51804061831
3356 1 26.9970172933 19.2514000643 2.51577349494
3389 1 28.5238150103 17.8298920266 1.16635671171
2878 1 29.8550475467 16.4026902759 2.67400250864
2910 1 32.6982863728 16.3846846109 2.8385117005
3388 1 29.8557893422 19.2493398125 2.66939809659
3420 1 32.7014571096 19.238469471 2.83294221712
3421 1 31.3815268534 17.8192001576 1.32535313476
2942 1 35.5264020981 16.3487830229 3.01713926486
2944 1 35.7904480685 16.357789832 0.146241454038
3452 1 35.5114635038 19.2269309544 3.01755240172
3453 1 34.2352951035 17.7981212383 1.48847361479
3454 1 35.7668051419 19.2278638825 0.145157649133
2976 2 38.5264591998 16.4519577592 0.350084445808
3485 1 37.0116301715 17.7731510199 1.71068523104
3517 1 39.6884166973 17.8385086632 1.97309943379
3484 1 38.191584023 19.2163569951 3.24740694573
3486 1 38.4867190477 19.2441836537 0.34860813523
3549 1 43.3996922504 16.333330512 3.52936785025
3519 1 40.9930084979 16.4808487977 0.333920715404
3007 1 42.2281738136 17.8258581252 1.9965020807
4059 1 43.5835350795 19.1051202773 3.67757138164
3516 1 41.0907885972 19.3339702289 3.30377540924
2527 1 40.9879788467 19.1488155212 0.463700850572
3550 1 43.1916959485 19.9185119191 1.34251427036
3042 1 45.6558211729 16.3541222564 0.459072510527
2496 2 44.5253447717 17.7242707228 1.90410410788
8200 1 47.1814190621 17.7190670041 1.99813793492
8709 1 45.6728433214 19.7884797934 2.77737144984
8201 1 45.7519748682 18.9166848317 0.435233090403
8169 1 48.5770041207 16.3281106958 0.398402576066
8233 1 50.1083160099 17.7590023998 1.74258984037
8742 1 48.6350341667 19.2309225571 3.20184783215
8679 1 48.6516217774 19.0742515784 0.434727329926
8202 1 51.4290656759 16.3208419959 0.22415956004
8264 1 51.5890794597 16.3494512331 3.0711611893
8265 1 52.9027385894 17.7983552966 1.56496070049
8296 1 54.4027135407 16.3670000651 2.92067181099
8774 1 51.5473227203 19.2338195357 3.06718613291
8806 1 54.4011079551 19.2305677567 2.91765136666
8712 1 51.3918562324 19.221880804 0.202828566043
8744 1 54.2388272435 19.2266029241 0.0591014760494
8234 1 54.2389963831 16.3639835721 0.0611241170401
8297 1 55.7426783739 17.8010202081 1.41227918982
8328 1 57.2489789857 16.377033661 2.76195432439
8838 1 57.2486860346 19.2330659133 2.75874803022
8329 1 58.5960176777 17.8081682284 1.25228442928
8360 1 60.1057625544 16.3844559703 2.59230918907
8361 1 61.4534885891 17.8141437223 1.08220884358
8870 1 60.1053855406 19.238904424 2.58988609605
8391 1 64.4781516582 17.8179301192 3.74507997499
8392 1 62.9650774994 16.3892211801 2.41552702169
8393 1 64.3104328711 17.8173851366 0.9052210696
8425 1 65.8235505337 16.3910693887 2.23518323829
8902 1 62.9638261355 19.2443027677 2.41461283478
8935 1 65.8205566286 19.2463866131 2.23569277154
8424 1 67.335406369 17.8190981622 3.56528038751
8426 1 67.1659921297 17.818162678 0.725228868434
8458 1 68.6805622809 16.3915257775 2.0555280563
8968 1 68.6759168122 19.2462328298 2.05670244336
8457 1 70.1923630123 17.82071176 3.38842521634
8489 1 73.0543724842 17.822887577 3.22284443252
8490 1 71.5366139266 16.393100475 1.88074912606
9000 1 71.5335493524 19.2471992773 1.8830264652
8394 1 70.0210958693 17.8189694174 0.546787703513
8427 1 72.8726177309 17.8213104898 0.371205030919
8521 1 75.925860505 17.8404554348 3.0880093144
8522 1 74.3848390041 16.4023096855 1.71136536842
9032 1 74.3936618664 19.2412522896 1.72122795188
8459 1 75.7238738301 17.8114248426 0.212258395847
8553 1 78.7416060408 17.8214416593 3.04126100218
8554 1 77.2396033901 16.3949441921 1.59256414815
8586 1 80.0160490319 16.4237549567 1.42797081446
9064 1 77.233094872 19.2271794721 1.58112519467
9096 1 80.0115139816 19.2488413707 1.40140827203
8491 1 78.5257281809 17.8122004587 0.0507547765025
8618 1 82.7932461476 16.4954636648 1.16370725294
8585 1 81.5520155256 17.9018858312 2.74074792246
9128 1 82.8987180322 19.297384685 1.13582097441
8650 1 85.6164219877 16.5575757132 1.13062151149
8617 1 84.2299767877 17.9836019242 2.72184521291
9180 2 85.5235382538 19.195703979 1.28664023767
8649 1 87.6977134656 18.8507379179 1.22603299476
9127 1 86.3328951938 19.0936062656 3.72415748534
9158 2 85.65513526 16.6283509386 3.74110614733
2559 2 90.5529223941 16.4046811378 0.830276124112
8647 1 88.2301256154 16.5800493284 1.06166697457
9179 2 90.8961494313 18.8730798645 2.86608448932
9097 2 89.4380988825 20.2207577515 0.322476961154
3609 1 2.72656656966 20.8056582687 2.47364476099
3578 1 1.45511073328 22.2036361584 0.925993440869
4119 1 2.70142530053 23.5692559926 2.54069494639
9689 1 0.0244378301609 23.5999564298 2.12820385597
3641 1 5.55323958819 20.7346707105 2.70116024398
3610 1 4.25118857235 22.1988861665 1.17737391339
3642 1 7.09518333067 22.1442801241 1.34790886104
4151 1 5.56535171405 23.5649829106 2.70695426705
3673 1 8.4292746272 20.717326251 2.84947271967
3674 1 9.92299258899 22.1206742651 1.4700173446
4183 1 8.42777775997 23.5534695978 2.84129749927
3705 1 11.2716129564 20.70127174 2.98419156066
3707 1 11.4302701678 20.6920677917 0.128569024708
3737 1 14.1258184015 20.6997266448 3.14480301569
3739 1 14.2896517982 20.6959061857 0.297244220981
3706 1 12.7800251943 22.1219504441 1.63504516197
4215 1 11.2755546547 23.5464854029 2.97994084251
4217 1 11.4364162478 23.5407539219 0.12038067023
4247 1 14.128403064 23.5518246162 3.14344526611
4249 1 14.2911701593 23.5470001793 0.293078165316
3771 1 17.1445320715 20.6956838707 0.469921308239
3769 1 16.9780423369 20.7004907858 3.31398678006
3738 1 15.6358706027 22.1259079355 1.80558917738
4281 1 17.1439945533 23.5497408779 0.464310385232
4279 1 16.982400427 23.5594621854 3.31561697599
3803 1 19.9979988451 20.6910482255 0.647574185428
3801 1 19.8294190667 20.6974904336 3.4867524892
3770 1 18.4869664058 22.1261824148 1.97699596687
3802 1 21.3322516676 22.1292529595 2.14695649993
4313 1 19.993476012 23.5519472003 0.634959246066
4311 1 19.8253170505 23.5650740455 3.48189913501
3835 1 22.8444405848 20.6924906802 0.822651919217