ITEM: TIMESTEP
32000
ITEM: NUMBER OF ATOMS
10200
ITEM: BOX BOUNDS pp pp pp
0.0 91.5382635842
0.0 28.55
0.0 45.7691317921
ITEM: ATOMS id type x y z
8 2 1.44340020371 2.01349012439 1.03445177886
549 1 2.60059901511 3.67048906555 2.4146808167
39 1 2.69677684786 0.686589374549 2.51566500405
7 1 1.06627118788 2.19847169835 3.64758198008
40 1 4.19081079444 2.17904616399 1.1934386132
72 1 7.01993268803 2.20328084551 1.33582540957
581 1 5.50644297436 3.65642141737 2.65168293905
71 1 5.50796266346 0.73881149701 2.67692374048
104 1 9.85942956295 2.16419559138 1.48588289233
613 1 8.34600719075 3.63949138065 2.80699840872
103 1 8.35103161904 0.730391421507 2.81671235958
615 1 8.52645391505 3.62601260446 0.00519626065565
136 1 12.7347575866 2.13493475685 1.64646204467
645 1 11.222008776 3.57548367562 2.97474429022
647 1 11.3887477017 3.56668409076 0.154762038484
677 1 14.074327488 3.54740706608 3.13260240914
679 1 14.2524571889 3.55848120704 0.316668436746
137 1 11.3783878529 0.71018016517 0.148636438529
167 1 14.0881206204 0.711711526758 3.14619855476
169 1 14.2495807633 0.705924049675 0.313820531344
135 1 11.216735077 0.717691267534 2.97735928006
168 1 15.6040335384 2.14588223299 1.82734399897
711 1 17.1041638117 3.56166706182 0.488899631867
709 1 16.9418894911 3.57947203481 3.33753103281
199 1 16.9409415807 0.716059482978 3.31846573865
201 1 17.1028402623 0.704143464601 0.477940684568
200 1 18.4393181483 2.14383624101 1.99101193162
232 1 21.30482502 2.12423183343 2.13626935178
743 1 19.9553137649 3.55253695476 0.643126534269
741 1 19.8103439453 3.54181570682 3.46657751569
231 1 19.7898960938 0.704502501831 3.47562643744
233 1 19.953207417 0.701809103345 0.639535642189
264 1 24.1638602015 2.12064871039 2.29490357066
775 1 22.8181159497 3.54516548483 0.795668584612
773 1 22.6482395277 3.54999535864 3.63897094316
265 1 22.8182647347 0.695441008692 0.794399639284
263 1 22.6474378631 0.695571649295 3.63463771312
295 1 25.5040796441 0.695833882472 3.79656556134
805 1 25.5022097346 3.54771980029 3.79979352662
297 1 25.6854070934 0.694830172575 0.952575109804
807 1 25.6816974655 3.54137136526 0.953304797526
296 1 27.0248566837 2.12161068498 2.45611340654
839 1 28.5438913829 3.54377818627 1.1132195934
329 1 28.5507268862 0.697258069543 1.11212569257
328 1 29.8843174486 2.12986741734 2.61963272038
360 1 32.7486041717 2.1541475278 2.7846181571
871 1 31.4031142962 3.55512512576 1.27445825153
361 1 31.4103045093 0.709141661373 1.27435958712
392 1 35.5780103639 2.18132891165 2.95753537783
394 1 35.7673068082 2.14157138405 0.0658059402011
903 1 34.274068629 3.57151942052 1.43255375729
393 1 34.2698216741 0.738339563348 1.44269928836
426 1 38.6249019052 2.17448653359 0.236905308991
935 2 37.0919111844 3.59107513393 1.46304549377
967 1 39.8632415182 3.6116545773 1.78715820996
424 1 38.3140900598 2.21039296014 3.14056440619
457 1 39.83333334 0.796037980243 1.80185916081
425 1 37.0790580264 0.76030415373 1.60451083466
456 1 42.7063816968 3.55639834817 1.93239797172
458 1 41.3889305826 2.19488595042 0.443219607967
5081 1 42.5992155914 0.819611100395 2.00849835611
487 1 41.1019152239 2.20577351755 3.34815535957
998 2 43.7889900157 2.20571657634 3.59046185368
999 2 44.9833232651 3.20299730778 0.919437821903
5650 1 47.1445135867 3.3970503128 1.88423385495
5649 1 45.3493322709 1.17959549649 2.37167050313
5140 1 47.5646294776 0.765943435947 1.81456387771
5173 1 50.107429175 0.748719721974 1.64213852811
5682 1 48.8701324483 2.16829779736 3.2131026751
5619 1 48.5990304127 2.20542067572 0.191418716524
5683 1 50.0860894084 3.59883537669 1.70291069532
5652 1 51.3881679516 2.16343836536 0.131022352937
5205 1 52.9250778945 0.737456729756 1.533056058
5714 1 51.6047566654 2.14637933176 3.05250278052
5746 1 54.4542905167 2.12611940579 2.91823632828
5715 1 52.9688686638 3.53208060032 1.57515183552
5684 1 54.2679846576 2.13534778452 0.0399909304377
5237 1 55.774530671 0.706672596888 1.39603339014
5778 1 57.2838771311 2.13414118947 2.74434771983
5747 1 55.7760319693 3.56167455021 1.39847156002
5269 1 58.6212018378 0.704824779748 1.23561379584
5779 1 58.6183801155 3.56331729709 1.23255544632
5301 1 61.4771666017 0.707185486588 1.06129067344
5810 1 60.1345135853 2.13656165847 2.56824640773
5811 1 61.473845986 3.56469119289 1.05764550405
5331 1 64.5120142875 0.713804615685 3.71602090692
5333 1 64.334336077 0.711090768067 0.879242892128
5842 1 62.9941130713 2.1400678258 2.38709598226
5841 1 64.5122172698 3.56948008212 3.71488795255
5843 1 64.3367781512 3.56988146219 0.876490756234
5875 1 65.8554224141 2.14663741516 2.20418688593
5364 1 67.3659585172 0.714542048032 3.53794233584
5366 1 67.1902369644 0.715316750477 0.699378499715
5908 1 68.7059042888 2.15115543973 2.02989294563
5874 1 67.3694434601 3.57316222114 3.54180861738
5876 1 67.2070551801 3.5873727184 0.693650696084
5397 1 70.2125559378 0.713036341662 3.36121810675
5429 1 73.0480274556 0.711910481459 3.17958294553
5940 1 71.5406314228 2.1529977876 1.84953061064
5334 1 70.0325546892 0.71477846099 0.523010860013
5367 1 72.8698988322 0.717959669052 0.341253052633
5907 1 70.2201695297 3.57975943585 3.36761287257
5939 1 73.0523529897 3.58173744227 3.18286702642
5844 1 70.0365896172 3.59670472392 0.524058278017
5877 1 72.8624449283 3.59550153812 0.336514757923
5461 1 75.8670064133 0.706873950838 2.99254892626
5972 1 74.3778346525 2.15426374732 1.66680028596
5399 1 75.7313459925 0.700453947371 0.185212137828
5971 1 75.8788472102 3.59986812282 3.00361688863
5909 1 75.7314071152 3.5757408246 0.172928235283
5493 1 78.7396537489 0.705361765367 2.92468196371
6004 1 77.2364555732 2.13190801549 1.53311259158
6036 1 80.0714044424 2.11695362608 1.3854504635
6003 1 78.7640081431 3.53982328208 2.8857334088
5431 1 78.5647773985 0.693578331229 0.0284599671969
6068 1 82.9143463523 2.09326352123 1.20249595691
5525 1 81.5470245683 0.683570221982 2.73756536414
6035 1 81.6196396033 3.5525876665 2.72946756369
6608 1 84.5838800086 3.45723402215 2.446796494
5590 1 84.4638893872 0.460062573601 2.50378664495
5527 1 85.5997154374 1.91983972274 0.922411503384
6117 1 87.1461721773 0.420981307161 2.11021377402
6609 1 87.2877842805 2.81080137306 2.305199427
6067 2 85.84162417 1.86155907794 3.79243321619
6120 2 88.3558119126 1.73632781167 0.590776590422
6097 2 90.5769104171 1.08568860319 3.3126685885
6610 1 90.0711186559 3.27982794382 3.42653745615
6119 1 89.1469948727 3.82757625824 0.889602764785
6579 1 91.4406522614 3.97936554581 1.51264136553
518 1 1.53696525621 5.31026653529 0.700894666331
1059 1 2.6791873815 6.44925951504 2.50997329621
1028 1 1.62229510711 8.01115097793 0.944428020029
7140 2 0.146496414351 6.5958243384 1.91445725167
517 1 0.906030592632 5.02825289147 3.66449060353
1027 1 1.0904392028 7.87668957565 3.81286638862
550 1 4.20454125733 5.06332075647 1.15891821686
582 1 7.03761577189 5.12730237833 1.33213499697
1060 1 4.25615317895 7.85139812908 1.19540163716
1091 2 5.35373218874 6.42722761921 2.82709565957
1092 1 7.05561233123 7.70871792675 1.34441119731
614 1 9.88245904701 5.00548454519 1.48720059339
1123 2 8.50838648515 6.41401328881 2.98414269617
1124 1 9.8892768761 7.81626210079 1.49171651667
646 1 12.736771748 4.9886883102 1.64884951565
1155 1 11.2316884782 6.40704305496 2.99157705771
1156 1 12.7402500653 7.82392938128 1.64926644621
1157 1 11.3996999525 6.40699750533 0.143674500405
1187 1 14.0789611862 6.41548380659 3.13821594515
1189 1 14.2569628875 6.40125962501 0.314813328308
678 1 15.598961617 4.97936359776 1.83360081125
1188 1 15.6064704297 7.81257860134 1.83023029865
1221 1 17.1041648647 6.39286748115 0.489914199537
1219 1 16.9420332819 6.3778640625 3.34046519566
710 1 18.4470235118 4.97723306364 1.99836968914
742 1 21.3056398432 4.97504960732 2.14021887614
1220 1 18.4372972192 7.81196320237 1.99542404857
1252 1 21.2993104451 7.82773489411 2.14246888104
1253 1 19.9528166452 6.39772272871 0.645717173382
1251 1 19.8088117999 6.41366822761 3.4699603314
774 1 24.1604704012 4.97132946644 2.29763144358
1284 1 24.1504351905 7.82554925696 2.30108291853
1285 1 22.8120325676 6.398062935 0.799254869197
1283 1 22.6459626787 6.40215874572 3.64326451121
1315 1 25.4958035242 6.40059165988 3.80370224193
1317 1 25.6698201494 6.39548845022 0.959958131473
806 1 27.0171708642 4.97075967869 2.45966347574
1316 1 27.0039999084 7.82416578534 2.46369129394
1349 1 28.5291562173 6.39778176339 1.12432526915
838 1 29.8760096661 4.97715962499 2.62398512829
870 1 32.7442818026 4.97995961649 2.78614330242
1348 1 29.863308622 7.82656219885 2.62874992165
1380 1 32.7341172431 7.83656149902 2.79269723572
1381 1 31.3982093403 6.40480468743 1.29010139449
902 1 35.5816909505 4.97858237476 2.95088982751
904 1 35.786590739 5.02305537503 0.0753971911178
1412 1 35.6018785957 7.85671405155 2.91185687443
1413 1 34.2750302983 6.4100117077 1.44854354201
1414 1 35.8131023762 7.88768468373 0.144735014124
1445 1 37.0792575803 6.40329140492 1.60977485976
934 1 38.3126649615 4.97576570392 3.13691825832
1444 1 38.3749230567 7.85396110011 3.06180591155
1477 1 39.8716420803 6.3325534985 1.83631948025
936 1 38.6708513837 5.06426066318 0.225124884457
1446 2 38.577413966 7.86302540829 0.306453833015
966 1 41.1169988236 4.96618440427 3.36731388486
1509 2 43.5610809659 6.25368112917 1.27806321899
1511 1 41.0568092269 7.82609502178 3.38794442164
968 1 41.5460960733 5.04046427655 0.472015488717
6161 1 43.7228038541 7.81012625287 3.29259350953
1510 1 43.7013324073 5.01743112195 3.52807877941
1000 1 45.4602280341 5.21243316292 0.22629635888
6159 2 46.1220743172 4.90908448636 3.63754988881
6160 1 47.1940653649 6.3049407575 1.90205809954
6669 1 46.1851886731 7.67369902559 3.50219419215
6671 1 45.4110522367 7.6812366735 0.674382130998
6192 1 48.7534218632 4.9371236066 3.20478753676
6193 1 50.0433798583 6.41514237113 1.75789840632
6129 1 48.1720638407 4.98109238171 0.315784872242
6702 1 48.7635033974 7.81504386901 3.27985730325
6639 1 48.4598494707 7.67765274435 0.307101578449
6162 1 51.6383668378 5.10719574711 0.327684458791
6224 1 51.6190572511 4.98860328002 3.05140121006
6225 1 52.9777066375 6.4791153145 1.60890158036
6256 1 54.4505097787 4.99513417657 2.91556515405
6734 1 51.5655152254 7.83983508722 3.06681647941
6766 1 54.4326033655 7.88553450804 2.9214455425
6672 1 51.3531020333 7.81270368423 0.22507681869
6194 1 54.2688170828 5.00211943834 0.0605387507618
6704 1 54.247151694 7.86591728361 0.0511518213787
6257 1 55.7682889051 6.43762195374 1.39898747923
6288 1 57.280040212 4.99813996963 2.73767204234
6798 1 57.2724208217 7.86172857606 2.7314899913
6289 1 58.6121391347 6.43099253498 1.22328603638
6320 1 60.129370037 4.99531928441 2.56233480379
6321 1 61.4668031211 6.42182679724 1.05188704955
6830 1 60.1246102913 7.85092545311 2.55575979301
6351 1 64.5105270277 6.4202548552 3.71379230713
6352 1 62.9904728294 4.99395703533 2.38448216251
6353 1 64.3337234166 6.4168290018 0.876725335045
6385 1 65.8585834076 4.99919171795 2.20659633492
6862 1 62.9883587284 7.84433608264 2.38105460714
6895 1 65.8584502561 7.83936652254 2.20428309347
6384 1 67.3740111652 6.42732834984 3.54452863514
6386 1 67.2137930606 6.41859946273 0.701070632602
6418 1 68.699678052 4.99244851403 2.0549814385
6928 1 68.70547338 7.85905791185 2.0502462417
6417 1 70.2375215148 6.44737310624 3.37531775576
6449 1 73.0592518737 6.46173205516 3.18652717859
6450 1 71.5637123625 5.00266717135 1.87011949679
6354 2 70.039777321 6.41508823346 0.658320704456
6387 1 72.8691315222 6.42921086487 0.343270587347
6960 1 71.5550231276 7.85121789589 1.8537742727
6481 1 75.9119684377 6.44076292113 3.0335985758
6482 1 74.3840716945 5.02155628686 1.67485561611
6419 1 75.7477225388 6.42021523173 0.171474357148
6992 1 74.4184061739 7.8342134593 1.66561864605
6513 1 78.7735384495 6.40551222823 2.86432461537
6514 1 77.2538935985 4.99169412869 1.52175819387
6546 1 80.0392968478 4.92250546315 1.31038402274
7024 1 77.2650520668 7.84447549279 1.51861780693
7056 1 80.0629621113 7.85719460279 1.31529141645
6545 1 81.3854553816 6.31786019847 2.61716513308
6578 1 82.7956684672 4.92183612515 1.12403646143
7088 1 82.9713885015 7.76415384917 1.20743188219
7086 2 82.8824025036 7.49432253027 3.75025218577
7118 2 84.8478783073 5.63565961711 1.79613563737
7120 1 85.7762246807 7.92362386531 1.13068048043
6100 1 87.273833183 5.3857434664 1.28045823274
6607 2 88.1539711163 4.44133157771 3.34915394641
7137 1 88.1431493191 7.61316270076 1.74713367183
6630 1 89.8189926944 5.71226124847 2.72332457174
6069 1 89.6491152663 6.07616052393 0.297967756234
1569 1 2.76138948607 9.31176767722 2.57305688357
1539 1 1.53458708033 10.7374749296 1.05094902026
2079 1 2.7286625076 12.1620133577 2.5956405015
1537 1 1.14624724741 10.7477360188 3.80992542046
1570 1 4.29682897411 10.7046221617 1.22610999544
1601 1 5.56308614919 9.20384213858 2.70455807269
1602 1 7.06823363701 10.6400053325 1.37042246161
2111 1 5.54830381733 12.1024799113 2.75232868321
1633 1 8.36981199146 9.18637413448 2.83379677474
1634 1 9.87956306075 10.6590708458 1.5004383627
2143 1 8.40423421445 12.0759815379 2.88558268979
1635 1 8.5446362108 9.20403698499 0.0105479988376
2145 1 8.55215452238 12.1282429335 0.00708455553279
1665 1 11.234366141 9.24131114889 2.98555761208
1666 1 12.7405702406 10.6838099961 1.64944893538
1667 1 11.3938330925 9.25088540123 0.156501120928
1697 1 14.0940160809 9.24925665572 3.15149643055
1699 1 14.2538892574 9.25360077751 0.316704581534
2175 1 11.2471369676 12.0904947941 3.01314251463
2177 1 11.3802653388 12.1196650871 0.147550378394
2207 1 14.0876980426 12.1153591729 3.151630509
2209 1 14.2420232921 12.1205246722 0.312977045924
1698 1 15.5956660362 10.6852307989 1.81670083184
1731 1 17.1015078995 9.25385366479 0.482777105209
2241 1 17.0981042761 12.1206920109 0.478705625116
1729 1 16.9406758678 9.24347472796 3.32446489225
2239 1 16.9385977761 12.1197721349 3.31595255269
1730 1 18.4422175526 10.6856349931 1.98344143568
1762 1 21.2926440188 10.6865809856 2.1452956371
1763 1 19.9463201608 9.2537318513 0.647601257637
2273 1 19.9496333165 12.1199039964 0.645670875963
1761 1 19.7867408635 9.25238111965 3.48425494378
2271 1 19.7888667557 12.1202162649 3.48267852925
1794 1 24.1418059953 10.685929773 2.30408319626
1795 1 22.8028567623 9.25761563683 0.804703003614
2305 1 22.798632946 12.1182729221 0.806475207145
1793 1 22.6398744683 9.25824665324 3.64553400569
2303 1 22.6354616954 12.1180382507 3.64709454056
2335 1 25.4738597416 12.1156908538 3.80231622317
1825 1 25.4832539845 9.25303787717 3.80279723202
2337 1 25.6507786478 12.1174528291 0.969266962719
1827 1 25.6572172249 9.25634801181 0.967104099338
1826 1 26.9915374068 10.6833806646 2.46592449614
1859 1 28.5155439282 9.25605825527 1.13350442757
2369 1 28.5065192243 12.1149920579 1.13663604146
1858 1 29.8487060889 10.6815208329 2.63277710694
1890 1 32.7170920977 10.682306225 2.80446233217
1891 1 31.3833954384 9.26040144238 1.30221964405
2401 1 31.3714816923 12.1087187589 1.30662802629
1922 1 35.6591611716 10.7939036618 2.89038908468
1923 1 34.2504381332 9.27235415255 1.48900996999
1924 2 35.6749954233 10.7139006759 0.167773103387
2433 1 34.1517648953 12.1090533438 1.48163296529
1955 1 37.1692665935 9.41283296764 1.60074122602
1954 1 38.5276968679 10.7841382358 3.08126249808
1956 1 39.3165180499 10.5445667373 0.479031837621
1987 1 40.5709503095 8.52735464492 1.12604506766
1988 2 40.8946608998 10.2816073799 2.60262347057
2019 1 42.0625097099 10.9501157699 0.422706251861
2497 1 43.177353215 11.3066416028 3.07717227916
2020 2 43.8799673773 9.46254677182 1.51066515756
7181 1 44.8701128023 11.6178917817 1.23508068906
6670 2 47.2258518038 8.88604038017 1.69545777029
7179 2 45.6671172673 11.2819380683 3.62005990207
7180 2 47.1970471424 12.1760709508 1.09967990954
6703 1 49.9208092549 9.24699028879 1.67121287767
7212 2 49.1143371514 10.6241443309 3.42956102095
7213 1 49.8524992381 12.0963094463 1.62132291225
7149 1 48.4069968144 10.5644349478 0.0757191114531
7182 1 51.28459686 10.6675351407 0.203307358794
6735 1 52.851309716 9.27706996048 1.55334070345
7244 1 51.5167264896 10.6926485545 3.05210981372
7276 1 54.3761338576 10.7076354439 2.89445897665
7245 1 52.8021602 12.1208404967 1.54686901892
7214 1 54.1966634011 10.6940544104 0.0515810788336
6767 1 55.7483257947 9.28741990063 1.38614296624
7308 1 57.2590373588 10.7031284625 2.72424701534
7277 1 55.7207631455 12.1181847076 1.38450167187
6799 1 58.6061661822 9.27600232702 1.21778896739
7309 1 58.5997209629 12.1150923209 1.21505621571
6831 1 61.4619640531 9.26789605195 1.04489686689
7340 1 60.1217174612 10.69484169 2.55186318551
7341 1 61.465006015 12.114241231 1.04722213674
6861 1 64.5108494678 9.26758427934 3.71038880065
6863 1 64.3359757924 9.26013342069 0.873255084208
7372 1 62.988554186 10.6898676471 2.37783729077
7405 1 65.8572535539 10.6847030586 2.20107278021
7371 1 64.510602523 12.1152897098 3.70881685379
7373 1 64.3340490354 12.1125106705 0.875224925232
6894 1 67.3725920711 9.26887666084 3.53930666033
6896 1 67.2107188105 9.24625695506 0.691844137073
7438 1 68.7195749997 10.6810837306 2.03129982317
7404 1 67.3752733518 12.1110945512 3.53817589635
7406 1 67.1985988436 12.1091848709 0.701281878414
6927 1 70.2420712923 9.27227908661 3.36506426553
6959 2 73.0756813694 9.28068739877 3.0544603671
7470 1 71.5501250364 10.692935833 1.84059555808
6864 1 70.0460930905 9.24474732461 0.521333797364
6897 1 72.8809442095 9.24653510283 0.337416277901
7437 1 70.2466772264 12.0973807636 3.37230965914
7469 1 73.0854964752 12.0883135116 3.1946280654
7374 1 70.0491065415 12.1100158839 0.5264645144
7407 1 72.8987095163 12.1061627565 0.350110647052
6991 1 75.9240056979 9.26698535329 3.02706331512
7502 1 74.4282502344 10.6926921664 1.66758870911
6929 1 75.7531860395 9.25877249254 0.171011260834
7501 1 75.92836422 12.0958837946 3.0377388893
7439 1 75.7560285679 12.1108326205 0.185926960076
7023 1 78.7967337339 9.26560101811 2.87433127108
7534 1 77.2747753473 10.6883732841 1.52839669794
7566 1 80.1341879427 10.6878427211 1.3663090975
7533 1 78.8077764177 12.1193616248 2.87928008617
7471 1 78.6121272375 12.117273804 0.019270045535
7055 1 81.6126634364 9.23736460557 2.72776260293
7598 1 82.8836397554 10.6278218512 1.31882107701
7535 2 84.0273610149 12.1053383877 0.114147849992
7565 1 81.5758315588 12.1571992163 2.76398924527
7119 1 86.6298890318 8.15792960257 3.73771801355
7087 1 84.4040878399 9.23307958363 2.70236975308
7630 1 85.5783095194 10.7252636329 1.30710477115
7568 1 87.6195429202 9.89056620388 1.95995100143
7599 2 87.4016204701 11.6408575906 0.153838978204
7628 1 85.9139557399 10.8712184051 3.76658413995
7090 2 89.8198154482 9.38556633166 1.81377190793
7139 1 89.8040838321 11.1256464268 3.44502649352
7648 1 0.175827753725 12.3581133131 2.39848453571
2589 2 1.60776467303 13.5360723006 0.852664213051
2557 1 2.61673627303 14.9329165794 2.58018671269
2080 1 4.2216642461 13.5166393516 1.23953945401
2112 1 7.08237784757 13.4929383205 1.44926843152
2621 1 5.5288368846 14.9516348272 2.76619620807
2623 1 5.71087986193 14.9472888761 0.100839960869
2144 1 9.91981734074 13.5154725741 1.5514080648
2653 1 8.41598994068 14.96546112 2.91234517288
2655 1 8.61898265973 14.9296222205 0.13508473974
2176 1 12.7292081876 13.5490109656 1.6515903133
2685 1 11.2565337428 14.965480431 3.03756235167
2687 1 11.3540339589 15.0001226174 0.152208053322
2717 1 14.0852638903 14.9749094324 3.15732989663
2719 1 14.2311436604 14.9826375355 0.311196952478
2208 1 15.5882802986 13.5507049073 1.81301632637
2751 1 17.0960051287 14.9807700881 0.477225948954
2749 1 16.9379712567 14.9800437875 3.31674855827
2240 1 18.4449000151 13.5522719292 1.98061262141
2272 1 21.2968606429 13.5533490651 2.14725188452
2783 1 19.9549172128 14.9840701753 0.647203885842
2781 1 19.7941987498 14.9861126428 3.48264711007
2304 1 24.1372286311 13.549881331 2.30479947949
2815 1 22.8018480405 14.9841884005 0.807673162047
2813 1 22.642907043 14.9956244311 3.64577591718
2845 1 25.4606469682 14.9936390623 3.79851546028
2847 1 25.6462976351 14.9821022645 0.971143896536
2336 1 26.9828217641 13.549299302 2.46808297066
2879 1 28.5037362186 14.9760678371 1.14018549402
2368 1 29.8417761453 13.5402101156 2.63332178141
2400 1 32.7015798412 13.534785752 2.8118499064
2911 1 31.3770605091 14.9609267123 1.30745968173
2432 2 35.5368089558 13.4859173696 2.95376096725
2434 1 35.7587053053 13.4487207742 0.22103275899
2943 1 34.233789157 14.9391936201 1.47593638477
2944 1 35.789932369 16.289354466 0.144603280766
2465 1 37.7089495276 12.4020584491 1.59640769377
2975 1 37.1203826753 14.8614726417 1.69358875918
3009 1 39.4339739815 14.5763962837 1.17057938187
3005 1 39.289367512 13.8174646076 3.48953226984
2974 1 38.4329351086 16.2885821278 3.09991722701
2017 1 40.7058563628 12.5344558275 1.84337232455
2530 1 43.1217587102 13.1587372114 1.44882177682
3519 1 41.575646857 16.2284451677 0.0779788579236
3037 1 41.5274031712 14.9716882672 2.09575018816
3040 1 43.664664456 15.5199326075 1.30933633358
3038 1 43.5507038983 15.9037778461 3.76024216672
7689 1 44.8983576569 13.5962836697 3.15357788856
7691 1 45.4743412451 13.8347450016 0.495547280822
8199 2 45.6353741996 15.6349274426 2.5911638572
7690 1 47.4406512976 14.7266008684 1.71172981346
7722 2 48.9662828806 13.5942974466 3.36413011877
7723 1 49.9941979084 14.9420306712 1.62322768451
7692 1 51.2765410206 13.5118661372 0.172813478235
7754 1 51.4923492708 13.5799820512 3.05841181882
7755 1 52.8372048709 14.9583679391 1.52915156135
7786 1 54.3633661102 13.5412799501 2.88964344429
7724 1 54.1861584235 13.5276373107 0.0413252099764
7787 1 55.7182765876 14.9617512106 1.38093761248
7818 1 57.2478416321 13.5430341766 2.72253811688
7819 1 58.5965018654 14.9677802731 1.21958124099
7850 1 60.1203340379 13.5438271494 2.55228819602
7851 1 61.4673195846 14.9690558598 1.04999574932
7881 1 64.5091843784 14.969120657 3.71077524406
7882 1 62.9880861415 13.5416777082 2.37908109253
7883 1 64.3324083864 14.9682308123 0.877110234965
7915 1 65.8534617731 13.5388263682 2.20674370468
7914 1 67.3706237492 14.96650953 3.53918947522
7916 1 67.192593464 14.965931957 0.704371401937
7948 1 68.7158776875 13.5342224358 2.03858497706
7947 1 70.2312817524 14.9625597014 3.36856462683
7979 1 73.0864924369 14.9651399808 3.19491371272
7980 1 71.5709196864 13.5305769802 1.8648696294
7884 1 70.0472580134 14.9632792786 0.530726786697
7917 1 72.9021888035 14.9622011762 0.358460857999
8011 1 75.9475357005 14.9729503689 3.02305431243
8012 1 74.4201957618 13.530308079 1.69615693475
7949 1 75.7593531808 14.9634107054 0.192458353124
8043 1 78.787837058 14.9892306802 2.8663149178
8044 1 77.2806058468 13.5426020755 1.53256753982
8076 1 80.1280637673 13.5792074429 1.35542799014
7981 1 78.5857491127 14.970556255 0.00592059439549
8075 1 81.6430231365 15.0641078597 2.69600435728
8108 1 82.8498675024 13.6074248106 1.24629794647
7597 1 84.4306761628 12.2877248823 2.61701837739
8107 2 84.3131910649 14.929612984 2.49598385975
8139 1 87.5501235693 12.3020460752 2.6250414064
8140 1 85.9236479252 13.5179532038 1.21871978243
8670 2 87.5096095865 14.8713969946 2.70472183074
8648 2 89.7877430056 12.9304836243 1.56589743319
2559 1 91.3864858137 14.8468341021 2.42323349325
8647 2 90.3771072114 16.2247605073 0.87707729025
2591 1 1.38487649246 16.3622982886 1.01212281614
3099 1 2.61801258244 17.7754710037 2.60041176475
8669 1 1.38012236331 19.2034589713 1.10218859333
2590 1 4.17678207721 16.3918406382 1.30963015653
2622 1 7.07936234924 16.4012136368 1.54414420323
3100 1 4.16474145865 19.2317533163 1.30784383207
3131 1 5.51221071626 17.8176739168 2.77619416188
3132 1 7.04704783429 19.3014694965 1.52666008036
3133 1 5.72334771029 17.8285356206 0.120724573692
2654 1 9.9297797588 16.4133970075 1.60968035493
3163 1 8.4054045187 17.8669442265 2.95485174081
3164 1 9.92368902313 19.2812479305 1.61393848998
3165 1 8.56842959172 17.8582167022 0.275584452773
2686 1 12.7291572745 16.4076230821 1.66062005673
3195 1 11.2768358439 17.8270505024 3.03642124527
3196 1 12.7290781244 19.2594201364 1.66046527528
3197 1 11.3472087667 17.8365983647 0.163934332268
3227 1 14.0853520316 17.8346664004 3.16049992209
3229 1 14.2299750242 17.8313784495 0.31169242027
2718 1 15.5859245388 16.4063372747 1.81434006488
3228 1 15.5859486244 19.2582554984 1.81161229144
3261 1 17.0946735953 17.831612162 0.47401157422
3259 1 16.9371513498 17.834631815 3.3161094417
2750 1 18.4469481721 16.4109531931 1.98083885722
2782 1 21.3111239343 16.4255879099 2.15283471319
3260 1 18.445459232 19.258741595 1.97555436997
3292 1 21.3162860783 19.2585558233 2.1416001078
3293 1 19.9570062942 17.8353481123 0.641845530322
3291 1 19.8035216701 17.8455150556 3.48086330859
2814 1 24.1376427585 16.427559409 2.30348555224
3324 2 24.1524647571 19.2572953682 2.16120960631
3325 1 22.7916759933 17.8210029002 0.786001611087
3323 1 22.6602832985 17.8622999501 3.64389619498
3355 1 25.4467647233 17.8638934817 3.79451488834
3357 1 25.6641097646 17.8172411924 0.951058916659
2846 1 26.9706739908 16.4216780626 2.47294359133
3356 1 26.975856544 19.2552608905 2.46206275546
3389 1 28.509896969 17.8248869816 1.13662816118
2878 1 29.8491425829 16.399749099 2.63208578187
2910 1 32.7307150078 16.3737111314 2.80153306743
3388 1 29.8633870155 19.2479463956 2.62708562433
3420 1 32.7452553934 19.234338571 2.78950380319
3421 1 31.3948897604 17.8066588229 1.30206717516
2942 1 35.5834681517 16.3463748335 2.97563113022
3452 1 35.628784855 19.2329669385 2.95118927873
3453 1 34.2770591858 17.783209062 1.46559874622
3454 1 35.8131693101 19.2060336028 0.138417818331
3485 1 37.0735725353 17.7324483895 1.65726158387
3484 1 38.4092974464 19.241188647 3.03984527832
2976 1 38.5118079848 16.434459493 0.223907088833
3486 2 38.4742631189 18.9382530629 0.202755600496
2494 1 40.0130965916 17.4232009154 1.69768979742
3517 2 41.7575823415 18.6516057819 0.0202651349312
3007 1 42.3381522758 17.4244010605 2.08257004015
3516 1 40.8658706075 19.1898843819 3.4104402256
3550 2 42.9983747105 19.5866910106 2.91804343267
3042 1 45.6890496288 16.4586349367 0.406142631876
2496 1 44.6434889005 17.8289003682 2.3443396747
8200 1 47.2060032432 17.6816438687 1.8174692333
8709 2 46.3108177915 19.3668389722 2.92583958664
8201 1 45.560386768 19.2918408962 0.481095614392
8232 2 48.8627496556 16.645937418 2.95322170675
8169 1 48.5018375823 16.3832073426 0.236992260535
8233 1 50.1230620578 17.866647088 1.61292051985
8742 1 48.8093363471 19.2148907127 3.22506098085
8679 1 48.6019801711 19.1728069458 0.28248896126
8202 1 51.3598931496 16.3759391495 0.14194591242
8264 1 51.5302945766 16.40192354 3.03976979312
8265 1 52.8676335647 17.8218495067 1.52466181313
8296 1 54.3784676591 16.3881442945 2.88463761774
8774 1 51.5886529571 19.2572623473 3.06655148474
8806 1 54.4013209794 19.2423209176 2.8944555386
8712 1 51.3741330651 19.2765300741 0.131616304545
8744 1 54.2231124379 19.2511590668 0.0264897501382
8234 1 54.2029731797 16.387871778 0.0303244749099
8297 1 55.7299754233 17.8181523953 1.38082094811
8328 1 57.2484850815 16.3911335724 2.72298619113
8838 1 57.258462575 19.2450406103 2.72835478207
8329 1 58.6002631666 17.8211233444 1.22157762928
8360 1 60.1207944793 16.3955668422 2.55423765337
8361 1 61.4687678452 17.8248820262 1.05180518101
8870 1 60.1241580009 19.2497590318 2.55805516522
8391 1 64.5082014444 17.8255651166 3.71255859548
8392 1 62.9882131308 16.397139369 2.38103723523
8393 1 64.330552229 17.8264081912 0.876672980687
8425 1 65.8496337162 16.3960534241 2.20759738826
8902 1 62.9883818882 19.2533585444 2.38347122801
8935 1 65.8470781627 19.2535919313 2.20767614641
8424 1 67.3660788444 17.8237949648 3.5391934567
8426 1 67.1869188832 17.8241605498 0.701184906318
8458 1 68.707264506 16.3928070191 2.03511720832
8968 1 68.7018120757 19.2498463492 2.0323259154
8457 1 70.221339136 17.8202368196 3.36605083696
8489 1 73.0793949839 17.8170263684 3.19335056913
8490 1 71.5628000911 16.3903065288 1.86173794514
9000 1 71.5554315449 19.2412102237 1.85665301923
8394 1 70.0403867511 17.8184330403 0.52575698886
8427 1 72.8951475338 17.8106389077 0.350908120622
8521 1 75.950895438 17.8133894539 3.02307071607
8522 1 74.4290425676 16.3935888158 1.69011875574
9032 1 74.4222901235 19.2235654809 1.68207360422
8459 1 75.7589719124 17.799030012 0.173339699152
8553 2 78.7758377095 17.7951067928 2.99193958682
8554 1 77.2777450854 16.3965952702 1.51825438977
8586 1 80.0750853102 16.389594772 1.33568405486
9064 1 77.270215948 19.2009645997 1.5075349353
9096 1 79.9975242422 19.149114942 1.33658009748
8618 1 83.0199347522 16.5386338105 1.1137357444
8585 1 81.5780779127 17.7783352976 2.64788256556
9128 1 82.8054438131 19.1911119196 1.07752958733
8555 2 84.8130440554 18.2539196438 0.785078549796
8617 1 84.5888656763 18.2474205759 2.95595442264
9127 1 86.7447056701 19.3239476112 3.77736229272
9180 2 88.042769659 18.9831534886 1.77614169137
9179 1 91.4163682612 17.6737745597 2.60898547871
9097 1 90.2752246826 18.8372307498 0.902470915957
8649 1 89.6895872605 19.1347653262 3.67597972526
3609 1 2.62839211682 20.6891374618 2.58766309194
3578 1 1.36275116676 22.0987084809 1.04861652595
4119 1 2.59274755411 23.5941012166 2.55160747231
3641 1 5.48447257687 20.7217535274 2.74286161458
3610 1 4.167894375 22.1569068009 1.26803694904
3642 1 7.03031531918 22.1527947178 1.44314213282
4151 1 5.49424101246 23.5741062438 2.7367623377
3673 1 8.39119916039 20.7012604672 2.92086793583
3674 1 9.89832351563 22.1298704766 1.559467355
4183 1 8.37663292368 23.5553130657 2.88170578437
3675 1 8.59995647899 20.7357192788 0.135966308956
4185 1 8.52973804574 23.5220317667 0.0129118597157
3705 1 11.2684796035 20.7176497974 3.02243375525
3707 1 11.3547647702 20.6642338856 0.154148277172
3737 1 14.0841605679 20.6883586766 3.15555917462
3739 1 14.2309274817 20.6777979456 0.307004856077
3706 1 12.7289329941 22.1103652711 1.64894677502
4215 1 11.2380563202 23.5543082215 3.01297165696
4217 1 11.3734187195 23.5294204233 0.149311829295
4247 1 14.0830237772 23.5432267183 3.14773777082
4249 1 14.2366099802 23.5354069569 0.306329163672
3771 1 17.0954528186 20.6819300735 0.470677419667
3769 1 16.9373107807 20.6854016718 3.312348457
3738 1 15.5864194528 22.1095492165 1.8074729085