ITEM: TIMESTEP
18000
ITEM: NUMBER OF ATOMS
10200
ITEM: BOX BOUNDS pp pp pp
0.0 91.5382635842
0.0 28.55
0.0 45.7691317921
ITEM: ATOMS id type x y z
8 2 1.65813477789 1.81988610616 1.04229266151
549 1 2.94769904113 3.49714481881 2.35862553564
39 1 2.83227631345 0.607023610362 2.54514467825
7 1 1.26579557606 2.17252896455 3.65029403386
519 1 0.224933558744 3.33872911453 0.0604578730049
40 1 4.32301645111 2.04396305034 1.10613121143
72 1 7.09099871329 2.09623640815 1.30062609853
581 1 5.58957112187 3.54399147468 2.62729215918
71 1 5.58637514832 0.648055993108 2.65689068965
104 1 9.91778060188 2.11358609831 1.46132324578
613 1 8.41775313774 3.55065878941 2.80337765911
103 1 8.41677296262 0.677680560521 2.81636229844
136 1 12.7601635917 2.12304358843 1.62332324119
645 1 11.2586128071 3.55420114778 2.96465831222
647 1 11.4187234092 3.55039601102 0.112130667698
677 1 14.1049982781 3.55714774471 3.12994530462
679 1 14.2653195638 3.55640035464 0.280441470446
137 1 11.4172232793 0.684124495139 0.116345442973
167 1 14.1059415589 0.699580674437 3.13499387149
169 1 14.2662851716 0.69738426306 0.283777467264
135 1 11.2580433096 0.690549886638 2.97223976161
168 1 15.6106933496 2.13018338622 1.79209822505
711 1 17.1182109715 3.56107121076 0.452399860692
709 1 16.9544157202 3.56013840921 3.3015758245
199 1 16.9568965619 0.706211174714 3.30573550493
201 1 17.1204044775 0.707070919387 0.454544659863
200 1 18.4631864799 2.13581020908 1.96382454348
232 1 21.3156192004 2.13996873673 2.1346410682
743 1 19.9737622297 3.56438467004 0.624748685769
741 1 19.8035217015 3.56359317011 3.47443396175
231 1 19.8051914846 0.711459470267 3.47826190588
233 1 19.9754662933 0.714080296651 0.625137973336
264 1 24.1697322037 2.14380833688 2.30834896375
775 1 22.8327466669 3.56508498318 0.795201488078
773 1 22.650472928 3.56547690733 3.6472869221
265 1 22.8341200823 0.719575788744 0.794764676258
263 1 22.6493127839 0.716965021733 3.65020256462
297 1 25.6903760882 0.725363671646 0.965674242915
807 1 25.689958151 3.56649125727 0.966571777488
296 1 27.0260674578 2.15162292516 2.48603339867
839 1 28.5375745779 3.57305545355 1.13566150817
329 1 28.5335489291 0.73101383397 1.13305474708
328 1 29.8699433469 2.16354862412 2.65531325793
360 1 32.6840045651 2.15391030879 2.82941893231
871 1 31.3815043408 3.58018674345 1.30930873812
361 1 31.3643050988 0.728433340422 1.29987995797
392 1 35.4856340045 2.17078738379 3.01467229134
394 1 35.7278695965 2.16269693589 0.136853021163
903 1 34.1930074963 3.58020844296 1.48529771327
393 1 34.1960023562 0.729192988173 1.47286547307
426 1 38.5637720246 2.19901445463 0.266634103261
935 1 37.0297887715 3.59188743699 1.66525271652
967 1 39.8373444653 3.57006790135 1.85761443683
424 1 38.2684920912 2.18271070828 3.22244215747
457 1 39.6646354331 0.821330805484 1.86290289319
425 1 37.0231426789 0.741566581989 1.64714645088
456 2 42.390059521 3.59977598715 2.17700779843
458 1 41.3695000667 2.17606115584 0.591628665129
5081 2 43.7519820445 1.19613699451 0.522375114187
487 1 41.1535942058 2.0090804283 3.44404444062
5048 2 42.904132444 0.0971967854539 3.35392731136
999 1 44.6019941838 3.23109362133 2.25133018503
5650 1 47.2451555846 3.51855160417 1.82730364886
5649 1 46.172412112 2.07526489076 3.52667158096
5651 1 45.8898579846 2.03224334557 0.441061496398
489 1 44.8652154274 0.61717628877 2.31242963816
5140 1 47.2713363445 0.592473956084 1.86012744201
5173 1 50.0793291576 0.636980092785 1.72222123398
5682 1 48.7607265161 2.09816927519 3.23058380302
5619 2 48.6241020482 2.04101904593 0.491164396519
5683 1 50.085231257 3.53033727776 1.71797403671
5205 1 52.8925348513 0.670626187124 1.5674457338
5714 1 51.5675220168 2.09108314476 3.08263520027
5746 1 54.4021074492 2.10243868966 2.92191162621
5652 1 51.3757507394 2.08495376631 0.204646899706
5715 1 52.8884188337 3.52264608137 1.55778875593
5684 1 54.2384034774 2.10248354244 0.0574567469258
5237 1 55.7516058717 0.681761500563 1.41216699901
5778 1 57.2561496918 2.10694839565 2.75900297575
5747 1 55.7427838928 3.53277455905 1.40899724676
5269 1 58.5993584102 0.679241108963 1.24603931307
5779 1 58.5984325286 3.53479916702 1.24798382282
5301 1 61.4564989795 0.678234234573 1.07450823127
5810 1 60.112150247 2.10488465663 2.58644817531
5811 1 61.4574140586 3.5323354659 1.07592086463
5331 1 64.488745454 0.671415496612 3.73970752288
5333 1 64.3165484572 0.677649063572 0.896845134115
5842 1 62.9723273041 2.10257416417 2.40822909446
5841 1 64.4919861453 3.52675856353 3.73719011504
5843 1 64.3175317428 3.53121994572 0.897726923492
5875 1 65.8312141471 2.10178249193 2.22760045911
5364 1 67.3441606363 0.672407335199 3.55721503631
5366 1 67.1728788235 0.67762738781 0.715479059333
5908 1 68.6852938191 2.10524073498 2.0470165298
5874 1 67.3468861301 3.52913393248 3.55714204676
5876 1 67.1742387578 3.53286087069 0.717735033813
5397 1 70.1944020493 0.676070355677 3.37324832668
5429 1 73.0375198857 0.679662228639 3.19241421139
5940 1 71.5346690456 2.11154066522 1.86793684514
5334 1 70.0248760785 0.679797837832 0.534035733044
5367 1 72.8772371942 0.685982978007 0.356309225847
5907 1 70.2002198186 3.53927912905 3.37602225012
5939 1 73.0368335645 3.5411989786 3.19953333721
5844 1 70.0273212627 3.53792993505 0.540985603392
5877 1 72.876329867 3.54311220236 0.372235040428
5461 1 75.907022972 0.694232650793 3.04335283026
5972 1 74.3880224033 2.11605110043 1.70407813178
5399 1 75.7290948483 0.695740743167 0.185364390524
5971 1 75.9061413617 3.53233780668 3.06128354524
5909 1 75.7245221687 3.53689821537 0.205461617892
5493 1 78.8154667773 0.669082615766 2.95470053793
6004 1 77.2546207093 2.1021237025 1.56266977119
6036 1 80.0676640637 2.1248281173 1.38913099657
6003 1 78.7510490986 3.52297417191 2.92219899304
5431 1 78.5601706611 0.708372160662 0.0109401215634
5941 1 78.5442978326 3.54306429234 0.0287570193743
6068 1 82.8057960851 2.1574393152 1.17557426271
5525 1 81.6127388534 0.700240567485 2.7360017408
6035 1 81.5706851278 3.56705581857 2.75967166239
6608 1 84.3709352181 3.61671996339 2.46635037398
5590 1 84.5851404671 0.827534249283 2.25024745992
6067 1 86.2028191956 2.38161622339 3.35669658942
5527 2 86.2419012391 1.12091577405 0.140336655242
5608 1 91.3583289104 0.570818585811 2.42435111302
6117 1 88.5052838733 0.615071854046 2.62182064793
5609 1 89.7347122875 2.11787351766 1.07277375917
6097 1 90.1772657221 2.34283759577 3.52457785957
6120 2 87.9469906716 3.63171832626 0.35058098636
518 1 1.4925739917 5.30393373382 0.944508712296
1059 1 2.82723793511 6.50844539308 2.44406059434
1028 1 1.26944073062 7.86005010051 0.484203522526
517 2 1.51607634905 4.77226551681 3.4405651184
7140 1 0.18023350826 6.77700113158 2.44828045261
550 1 4.31622023818 5.01471898192 1.07665595687
582 1 7.09238120873 4.98863202769 1.2920300518
1060 1 4.24992927472 7.87675366584 1.10574813015
1091 1 5.58070790869 6.43178912555 2.63597770142
1092 1 7.0893849275 7.86186202227 1.29630844518
614 1 9.91956067662 4.98588933405 1.45608129184
1123 1 8.41858388548 6.42182172666 2.80456186902
1124 1 9.92270913617 7.85387362954 1.4562273306
646 1 12.7611490424 4.98624929017 1.61925748859
1155 1 11.2613597889 6.41764133693 2.96328610996
1156 1 12.7635679974 7.84971766815 1.61814714976
1157 1 11.4210165311 6.42008205434 0.108889322386
1187 1 14.1061960117 6.41648034936 3.1275735413
1189 1 14.2661070978 6.41872717528 0.27807018726
678 1 15.6097778673 4.98757691878 1.78876767879
1188 1 15.6106170556 7.84719473328 1.78760803004
1221 1 17.1174761916 6.41813488062 0.451096242493
1219 1 16.9529995922 6.41657279034 3.29856442789
710 1 18.4611433867 4.98927713097 1.96143405406
742 1 21.314601742 4.9903377836 2.13392626646
1220 1 18.4599705791 7.84551074082 1.96076912705
1252 1 21.3122775785 7.84294414145 2.13468338446
1253 1 19.9718286125 6.41745427792 0.624964548243
1251 1 19.8013055624 6.41714139599 3.47169120936
774 1 24.1690568018 4.98923487572 2.30812518554
1284 1 24.1663188728 7.83988177547 2.30981211933
1285 1 22.829378735 6.41545502665 0.797785862283
1283 1 22.6520666562 6.41646613827 3.64613879402
1317 1 25.6855694116 6.41382706165 0.971685363197
806 1 27.0258480969 4.98972390654 2.48684422821
1316 1 27.0189701919 7.83807201599 2.48666362827
1349 1 28.5361245468 6.41714040122 1.14266313386
838 1 29.8758016156 4.99231094038 2.65945804517
870 1 32.6968548164 5.01292138856 2.83469368802
1348 1 29.8548039542 7.85449728508 2.6499069879
1380 1 32.7027657344 7.87011052122 2.82031261373
1381 1 31.3813703151 6.43180109826 1.31148418028
902 1 35.4904766241 4.98325768781 3.02523660477
904 1 35.7330478602 5.00915540974 0.150665501796
1412 1 35.5375001328 7.86651250705 3.01678536111
1413 1 34.2250958722 6.44164051763 1.491890696
1414 1 35.780406818 7.89342733508 0.175095651629
1445 1 37.0212497178 6.4046297704 1.67829778409
934 1 38.3007146299 4.96223962303 3.26352903168
1444 2 38.2004804893 7.73207968149 3.26734336516
1477 1 39.6747292543 6.37295939122 1.87607983939
936 1 38.5947662439 5.02339081805 0.328207441994
1446 1 38.5512153572 7.87890269893 0.334529185039
1510 1 43.6994078852 5.60430566092 2.51225584267
966 1 40.96830224 4.92991209804 3.4301923833
1509 1 43.4626132219 7.47680529415 1.00092534124
1511 2 41.7181258894 6.90306992419 2.53151655176
968 1 41.6022415269 5.37760582419 0.561450921604
6161 1 43.4983847577 7.86460071232 3.51019194855
1000 1 45.6018166648 5.49478743552 1.16409525612
6159 1 46.1570344546 5.00206819946 3.37259444652
6160 1 47.5361215928 6.47438757718 1.92973168349
6669 1 45.8685291379 7.67050157728 3.1772567538
6671 1 45.7761624121 7.84198646632 0.505310907411
6192 1 48.7884614575 4.90620084207 3.2552422502
6193 1 50.0630892441 6.36909158877 1.69873768846
6129 1 48.5258467565 4.91492100677 0.339915553849
6702 1 48.8506783003 7.8597605522 3.26361475049
6639 1 48.591177964 7.86565486505 0.308219389148
6224 1 51.5732468986 4.94831726451 3.07662293103
6225 1 52.8840409393 6.38426353022 1.55168340668
6256 1 54.398880558 4.95775984343 2.91596334131
6162 1 51.3659162028 4.94709990996 0.192993282557
6734 1 51.5699400087 7.80918834471 3.06392742914
6766 1 54.3936546505 7.81841102728 2.91387571028
6672 1 51.3548733939 7.81608769639 0.184499439255
6194 1 54.2259913206 4.95892236552 0.0550169963786
6704 1 54.217487119 7.82018108404 0.0544283441915
6257 1 55.7354106031 6.39055332625 1.40739650685
6288 1 57.250961629 4.96385487884 2.75658275311
6798 1 57.2492319342 7.81794192352 2.75527493827
6289 1 58.5976470507 6.39063423651 1.2481502447
6320 1 60.1116739254 4.96140347781 2.58606057757
6321 1 61.4599852924 6.38813041577 1.07656009681
6830 1 60.1131916837 7.8157276039 2.58507893095
6351 1 64.4938995848 6.38400379837 3.73498014113
6352 1 62.9740884883 4.95767006856 2.40759269104
6353 1 64.3194023421 6.38705512179 0.897810649714
6385 1 65.8326336858 4.95735775896 2.22690670208
6862 1 62.9763158066 7.81443645156 2.4067149398
6895 1 65.8344094444 7.81509713596 2.22588297215
6384 1 67.3466849714 6.38590645583 3.555743331
6386 1 67.1750572656 6.38781211198 0.718079419534
6418 1 68.6885822271 4.96213346655 2.04924410061
6928 1 68.6900258419 7.81420449378 2.04853424815
6417 1 70.1995166716 6.38924759186 3.37596282802
6449 2 73.0375287826 6.39105405315 3.20104970105
6450 1 71.5300139089 4.95978461709 1.86783387437
6354 1 70.0316133939 6.3893060005 0.545918209553
6387 1 72.8758604906 6.38776355731 0.375914016107
6960 1 71.5321837521 7.82045425636 1.86834025436
6481 1 75.8977891321 6.38561261505 3.05006222727
6482 1 74.3934093944 4.95574762343 1.70682172725
6419 1 75.7114655158 6.38842011396 0.206550343847
6992 1 74.3875983631 7.81772039644 1.70334157557
6513 1 78.7290186379 6.39545216623 2.88951567761
6514 1 77.2297440495 4.95986234894 1.55491960497
6546 1 80.0195967422 4.95170658597 1.37679422573
7024 1 77.2204845359 7.81906401698 1.54062152036
7056 1 80.024187355 7.84947737869 1.35830799475
6451 1 78.5394249599 6.39737419745 0.0274881678175
6545 2 81.4180155203 6.39690798402 2.71559272005
6578 1 82.8626722081 5.01588952453 1.26094296526
7088 1 82.799608782 7.81808516065 1.25810160398
6577 1 84.7918356228 6.54254172687 2.41956737464
6609 1 85.967148947 4.58384768977 1.21731292033
6100 1 87.4371090614 6.64800754859 2.55107682619
6547 2 86.2424836287 6.63525964712 0.456708182725
6610 1 88.3348696851 4.20035765269 2.7611015451
6630 1 89.5845653583 6.65381957647 3.6426340656
6119 2 89.5367905823 6.00449361972 1.49640481132
6579 1 90.9381635876 4.3762503989 2.49832931497
1569 1 2.71760713297 9.22650705143 2.43109621743
1539 1 1.45827271839 10.7316135296 0.92453251148
2079 1 2.76764425346 12.1256134587 2.52350042013
1538 2 0.119581099061 9.16612860456 1.89833857944
1570 1 4.24401743265 10.7075308968 1.1461808473
1601 1 5.56927484206 9.27642924214 2.65566921342
1602 1 7.09227324496 10.7146309723 1.30991684053
2111 1 5.58753424821 12.1062913988 2.69281522417
1633 1 8.42224364724 9.2759725559 2.81535334002
1634 1 9.92660263838 10.7140904461 1.46385305359
2143 1 8.43509115677 12.11336516 2.84874453943
1665 1 11.266624816 9.27570867036 2.96883198148
1666 1 12.7670859067 10.7100786002 1.62096117895
1667 1 11.422430831 9.28835744674 0.108086829513
1697 1 14.1094652628 9.27534213858 3.12931819248
1699 1 14.2683136073 9.28176863603 0.278206699334
2175 1 11.2826059981 12.1196519203 2.99326654806
2177 1 11.4247384961 12.1505891287 0.109800540735
2207 1 14.1114399523 12.1346842752 3.13489979463
2209 1 14.2688674602 12.1449954454 0.282130557847
1698 1 15.6122778213 10.7083198978 1.79007734789
1731 1 17.1179601539 9.27830021981 0.452227293368
2241 1 17.1200085189 12.140190756 0.456095419845
1729 1 16.9535312706 9.274402755 3.29919240965
2239 1 16.95603689 12.1338425959 3.30307756742
1730 1 18.4604035375 10.7043148768 1.96344726228
1762 1 21.3104015275 10.6990117926 2.1381588315
1763 1 19.9700003726 9.2748513908 0.627532964406
2273 1 19.9710037113 12.1340060609 0.631464220466
1761 1 19.800264957 9.27124750776 3.4725116665
2271 1 19.8014381622 12.1279737772 3.47646841253
1794 1 24.1599017167 10.6958191814 2.31247051231
1795 1 22.8245152848 9.27088942045 0.802024030765
2305 1 22.8208076262 12.1289868983 0.805886803374
1793 1 22.6496829437 9.26718780123 3.64687269029
2303 1 22.6470639825 12.1232273976 3.65095241612
2337 1 25.6683773708 12.1294649012 0.978852169025
1827 1 25.6777352514 9.26991943361 0.976454062228
1826 1 27.0060831858 10.6994416292 2.48580050775
1859 1 28.5239136228 9.27748051225 1.14419958176
2369 1 28.51601672 12.1345718058 1.14828691225
1858 1 29.8484194033 10.7057489425 2.65566153544
1890 1 32.6862727875 10.7131144239 2.82890241657
1891 1 31.3746953454 9.2862213325 1.31337835335
2401 1 31.3652213449 12.1411072592 1.31551791732
1922 1 35.484540529 10.7387001326 3.02267598812
1923 1 34.2404144968 9.30221401693 1.49080316309
1924 1 35.8177374498 10.7352489888 0.160273449184
2433 1 34.2108101262 12.1448570692 1.47891152077
1955 1 37.0682591324 9.31820490323 1.72128391342
1954 2 38.1288461218 10.9926776435 3.25034389942
2465 1 36.942489897 12.1735543801 1.69016981554
1956 1 38.9573010479 10.5146153317 0.625284365955
1987 1 40.956275542 8.20749504759 0.690812959043
1988 2 40.8676336272 9.98172529247 2.25489736609
2019 1 42.5360377826 10.164943559 0.373331865233
2497 1 42.1654322022 11.6871823816 3.72143203988
2017 1 41.1892894655 12.0017637255 1.36177283978
2530 1 44.0412141885 11.8563951369 1.91788604017
2020 1 44.525785351 9.42524359438 1.99778228624
7179 1 46.1544918589 10.7911718566 3.22194569928
7181 1 45.6430098656 10.7622783218 0.423093295304
6670 1 47.2733387846 9.13596799889 1.84488420497
6703 1 50.0815031275 9.26585039518 1.68154323801
7212 2 48.7964644125 10.5285251144 3.23452655351
7149 1 48.474663723 10.7574260473 0.39069695642
7213 1 50.0686100833 12.131934106 1.74144394794
6735 1 52.8742941581 9.2505163602 1.5532087756
7244 1 51.557658515 10.683188305 3.07189772591
7276 1 54.3945117148 10.6710578429 2.91444648455
7182 1 51.3502856651 10.7064879592 0.209109539588
7245 1 52.8768877175 12.108112017 1.5656935143
7214 1 54.2190244828 10.6767768494 0.0578939507311
6767 1 55.7343721676 9.24482397024 1.40647108698
7308 1 57.2515365829 10.6685074527 2.75455918785
7277 1 55.7384784268 12.0965540983 1.40836858426
7309 1 58.5997700839 12.0964939189 1.24687042193
6799 1 58.5986326817 9.24345871359 1.24726479078
6831 1 61.4616454991 9.243562494 1.0761212336
7340 1 60.1142022316 10.669690612 2.58426327907
7341 1 61.4617405174 12.09885449 1.07533607538
6861 1 64.4955766887 9.24286005271 3.73334767024
6863 1 64.3212929579 9.24431189603 0.897365989395
7372 1 62.9772430023 10.6716332482 2.40584612292
7405 1 65.8364187004 10.673461088 2.22497177112
7371 1 64.4959194636 12.1014169551 3.73238344868
7373 1 64.3218577966 12.1013420297 0.896506725341
6894 1 67.3498626397 9.24388872029 3.55410295005
6896 1 67.1775014901 9.24450312377 0.717585592497
7438 1 68.6903923251 10.674109877 2.04655942081
7404 1 67.3511529951 12.1038424277 3.55348545043
7406 1 67.178465219 12.1032702973 0.715998759218
6927 1 70.2030232462 9.23964616052 3.37434069937
6959 1 73.0420095095 9.24587777259 3.20070075466
7470 1 71.5395303598 10.6730229825 1.87056604748
6864 1 70.0304409143 9.24248663464 0.542323039595
6897 1 72.8760220681 9.23855994034 0.373009623888
7437 1 70.2014110101 12.1060571441 3.37540308282
7469 1 73.0485568978 12.1056805148 3.20170132687
7374 1 70.0307637784 12.1052853439 0.538172206049
7407 1 72.8800847531 12.1054404567 0.363796068236
6991 1 75.8873564371 9.23876774239 3.04260512601
7502 1 74.3855452227 10.6723057301 1.703433732
6929 1 75.7109969972 9.24098538917 0.195408241816
7501 1 75.9001981894 12.1071047963 3.04260483096
7439 1 75.7183587116 12.1022913171 0.188249086742
7023 1 78.7308980459 9.2513258393 2.88455261686
7534 1 77.2224387974 10.6744949382 1.53378221508
7566 1 80.0541926781 10.6808237867 1.36238076496
7533 1 78.7329239504 12.1034691722 2.8834560067
6961 1 78.5432043812 9.25311406387 0.0133335399664
7471 1 78.5483296737 12.0935999072 0.00563499437137
7055 1 81.5473563512 9.26442111011 2.73489386633
7598 1 82.8466061184 10.7083383283 1.20576105432
7565 1 81.566070803 12.1117842037 2.71616158962
7087 1 84.2839352688 9.25479473724 2.55627484646
7597 1 84.4526387912 12.0521366981 2.54637429098
7120 1 86.3567364243 8.69796193206 1.67524447202
7630 2 85.5489144298 10.711552155 0.862842614621
8139 1 87.3024270696 11.5553803879 2.17439925157
7119 1 88.0360744409 8.96623190616 3.20679934339
7568 1 87.9777995678 9.94291761632 0.367854050867
7137 1 89.4863567872 8.23665997662 1.35258619012
7139 1 89.555459177 10.5072496616 2.22250468421
7648 2 90.9227975891 12.1514123707 1.39588908276
2589 1 1.29975571662 13.6276291026 1.10738834005
2557 1 2.84728293825 14.9604584594 2.46295248632
2080 1 4.26608533334 13.5118514404 1.19613742407
2112 1 7.10061543698 13.5256569678 1.38039002557
2621 1 5.58383644488 14.9564120975 2.72628440588
2144 1 9.96088304584 13.5380850495 1.51537829096
2653 1 8.43902762876 14.9710098636 2.86625309572
2655 1 8.67171071574 14.9402854788 0.0822016480829
2176 1 12.7640060865 13.572287211 1.62696893582
2685 1 11.2867967632 14.9804557312 3.01239436175
2687 1 11.4004355011 15.0214764732 0.114460278976
2717 1 14.1129590886 14.9921062534 3.14347203536
2719 1 14.2648832762 15.0056753634 0.286425774883
2208 1 15.6130140032 13.5687918689 1.79480421836
2751 1 17.1230893208 14.9982967444 0.461567988337
2749 1 16.9599678417 14.991549875 3.3094186507
2240 1 18.4651565271 13.5652278153 1.96964927195
2272 1 21.3112452459 13.5580437027 2.14390927311
2783 1 19.9785572804 14.9971454389 0.64128445679
2781 1 19.8114319254 14.9915174869 3.48524444445
2304 1 24.1530570861 13.5554694153 2.31774848655
2815 1 22.822094286 14.9921985568 0.816449689141
2813 1 22.6340870117 14.9714887505 3.64199042005
2847 1 25.6582052969 14.9924683818 0.987995666729
2336 1 26.9947690757 13.5599608215 2.48763897523
2879 1 28.5014132945 14.9984541146 1.15431231004
2368 1 29.8352478591 13.5685228053 2.65410302639
2400 1 32.6733761452 13.5824525927 2.81392474114
2911 1 31.3556028744 15.0036589962 1.31367908153
2432 1 35.4424959244 13.6236093763 2.98207534709
2434 1 35.7700566488 13.6147921522 0.182413834183
2943 1 34.2334908048 15.0209124952 1.46956820418
2975 1 37.3009442755 14.8657959532 1.73593521135
2498 1 39.0355860123 13.1073066362 2.00887387303
3039 1 43.6636703371 13.8999072197 2.86701490034
3009 1 41.2082235435 14.1302715287 2.37194722303
3040 1 43.4508352335 15.5947458305 1.07075916932
3008 1 42.465382027 13.6179667943 0.233572313191
3549 1 43.1949956786 16.1875357691 3.38922063384
3519 1 41.0449564481 16.0027576745 0.868146912905
2494 2 40.9137021999 16.2646405243 3.44960445084
7180 2 46.8088485136 12.4421713474 1.33724716559
7689 1 46.0952965419 13.4677793467 3.31293568387
7690 1 47.3330991224 14.8793059276 1.75013283014
7691 1 45.1578877339 13.8634828502 0.837798412424
8199 1 45.7050618859 15.9565866604 2.99882787127
3042 1 45.700881281 16.2747804302 0.402804022359
7722 2 48.8900029522 13.6925280734 3.41631431906
7723 1 50.0316067683 14.9207531493 1.69390591798
7659 1 48.524551859 13.5608027157 0.105541536602
7754 1 51.5596096038 13.5334335154 3.09080416829
7755 1 52.8815269511 14.9403384133 1.55974049559
7786 1 54.4002996274 13.5226935601 2.91933700024
7692 1 51.343637662 13.5167700669 0.197469360104
7724 1 54.2260918073 13.5208001605 0.0565642123402
7787 1 55.7406277118 14.9480103093 1.40686158495
7818 1 57.2523969063 13.5208405858 2.75542859273
7819 1 58.599762074 14.9504712633 1.24597835298
7850 1 60.1133650688 13.5243674891 2.58387827822
7851 1 61.460542592 14.9544050769 1.07445385956
7881 1 64.49414042 14.9591509985 3.7319694641
7882 1 62.9764100554 13.528444253 2.40506455331
7883 1 64.3205572177 14.957988534 0.895501107576
7915 1 65.8362912589 13.5315752413 2.22409653462
7914 1 67.3507390202 14.9618699748 3.55341099296
7916 1 67.1775607983 14.9608346193 0.714431836087
7948 1 68.6909755369 13.5345825427 2.0450735479
7947 1 70.2046335841 14.9646244822 3.37666379356
7979 1 73.0606082892 14.9683415662 3.20624713495
7980 1 71.5442305908 13.5374775919 1.86969022882
7884 1 70.0321735951 14.9631259557 0.535496257272
7917 1 72.885633228 14.9640459886 0.360400718821
8011 1 75.9189853167 14.972548842 3.05111039412
8012 1 74.3966499245 13.5386283543 1.70166208485
7949 1 75.730177628 14.9603578659 0.184158937861
8043 1 78.7412305558 14.9693055158 2.89206768905
8044 1 77.2338666254 13.5327420278 1.53164288627
8076 1 80.0501628419 13.5145222919 1.36245267025
7981 1 78.5564259687 14.943208129 4.47938091932e-05
8075 1 81.5807173212 14.9298367438 2.70509585317
8108 1 82.9022654916 13.5040078504 1.17636562823
8107 1 84.3520483085 14.9889745022 2.50223554318
8140 1 85.6059026257 13.54459219 1.03674364482
8650 1 86.6538397195 15.3493147117 2.41707568803
8648 2 87.9849528711 13.7045143241 0.948997075386
2559 2 90.7900305092 15.3988043008 1.39379362906
8647 1 88.4953151288 16.2254604841 1.04907690222
2591 1 1.35102867297 16.4233425429 1.10027347837
3099 1 2.7733125171 17.7413767358 2.58328985911
8669 1 1.30103033891 19.2192611248 1.24036708077
3067 1 1.24853816022 19.0755112373 3.80685333585
2590 1 4.27729772301 16.3989521657 1.24707889375
2622 1 7.09282121191 16.3946139933 1.42912541058
3100 1 4.23900844798 19.2534053776 1.2775966648
3131 1 5.57215258872 17.8255372519 2.75794838855
3132 1 7.05527977793 19.2981874014 1.42612644761
2654 1 9.96869132926 16.4190928392 1.55539485715
3163 1 8.42119759948 17.8463391502 2.88641220556
3164 1 9.95101722826 19.2850638891 1.54849800234
3165 1 8.59616249297 17.8568062514 0.192166119879
2686 1 12.7622714657 16.4264032834 1.63832966655
3195 1 11.2855735115 17.8502024237 3.02452141759
3196 1 12.7628709041 19.2729505784 1.64100183262
3197 1 11.3940691045 17.8569436162 0.124735420899
3227 1 14.1147652398 17.8472781127 3.1499529227
3229 1 14.2664814093 17.8514180175 0.291898964053
2718 1 15.6153402733 16.4229523276 1.80171238361
3228 1 15.6178410488 19.2731198971 1.80422012886
3261 1 17.1260124382 17.8485402983 0.464917799379
3259 1 16.9632404535 17.8470663554 3.31459993235
2750 1 18.4707063238 16.4223498451 1.97760182609
2782 1 21.3285097588 16.4277672086 2.16487610449
3260 1 18.473163437 19.2720207407 1.97890529551
3292 1 21.3309301883 19.2665289211 2.16485360965
3293 1 19.9820775552 17.8473600009 0.644064072194
3291 1 19.8219917899 17.8470852118 3.49487975573
2814 1 24.149186483 16.4190231894 2.33924415092
3324 1 24.1506689937 19.2758018925 2.33822416731
3325 1 22.8297801885 17.8469826785 0.826517287428
3323 1 22.6699048426 17.8475353634 3.68169128854
3357 1 25.6490548537 17.8467515777 0.996675170361
2846 1 26.9695814876 16.4288444242 2.50521666355
3356 1 26.9694430826 19.2666632194 2.50476278913
3389 1 28.4975116929 17.8469194554 1.15448131058
2878 1 29.8246929005 16.4260236652 2.65866425846
2910 1 32.6703937024 16.4265485378 2.81889563725
3388 1 29.8261544734 19.2697524379 2.65914373855
3420 1 32.6721193771 19.2624721407 2.8253452371
3421 1 31.3566404025 17.845366573 1.31153765992
2942 1 35.4733259593 16.4098864371 2.99263312568
2944 1 35.8260246008 16.3810485998 0.159007209003
3452 1 35.4450150351 19.2850822363 3.01236913936
3453 1 34.227759914 17.8359547654 1.4699087058
3454 1 35.7762545161 19.2467333698 0.129336117416
2974 2 37.9166586662 16.5721967146 3.36109872102
2976 2 38.6366525393 16.4487324881 0.272760449329
3485 1 36.9983042451 17.842033354 1.65480553499
3517 1 39.7033597256 17.8192197548 1.97266317964
3484 1 38.1885100984 19.215283626 3.27316613517
3486 1 38.5963014489 19.2282173352 0.352525385337
3007 1 42.1381426926 17.7959566254 1.89634286704
4059 1 43.5732465487 19.0427428393 3.53078710348
3516 1 41.1857568641 19.6435425421 3.18019153225
2527 1 41.0051935748 19.4344151903 0.689237429683
3550 1 43.2740973128 19.8758982334 1.2731223725
2496 2 44.5190574501 17.7074755991 1.76525535647
8200 1 47.1500364002 17.761394922 1.8649079701
8709 1 45.7707490673 19.7081720817 2.73620545489
8201 1 45.7744259897 19.0810635139 0.325406159044
8232 1 48.6730832483 16.390197431 3.20899895376
8169 1 48.5600022502 16.3177137244 0.339181433357
8233 1 50.0602461187 17.7575588762 1.67389714401
8742 1 48.7437620327 19.1569366547 3.11143695169
8679 1 48.6039361689 19.1418322926 0.309919128437
8202 1 51.3789552128 16.3442620799 0.18872508913
8264 1 51.5613417527 16.3897855156 3.0565129777
8265 1 52.8870272775 17.8057519754 1.54354622479
8296 1 54.3976820757 16.3782377005 2.90942497287
8774 1 51.5273885151 19.234884558 3.04520715888
8806 1 54.399103141 19.2334525914 2.90591308783
8712 1 51.3787698975 19.2139280254 0.156146092325
8744 1 54.2362393935 19.2299557604 0.0468525596505
8234 1 54.2298966913 16.3695322088 0.0525377838106
8297 1 55.7422982342 17.8043953208 1.40213961161
8328 1 57.2525777801 16.3768540013 2.75219444818
8838 1 57.2533235962 19.2368049519 2.74892171755
8329 1 58.5996658062 17.8077651872 1.2440089772
8360 1 60.1118350607 16.3803173048 2.58283384353
8361 1 61.4589389259 17.8110655731 1.07346252856
8870 1 60.1120536656 19.2392791293 2.58137177098
8391 1 64.4909174213 17.8162272696 3.73269837207
8392 1 62.9742181011 16.3850651362 2.40458181746
8393 1 64.3182273205 17.8142708345 0.894762233884
8425 1 65.8342916407 16.3883481361 2.22370031549
8902 1 62.9720644803 19.2421777805 2.40455111097
8935 1 65.8311611672 19.2439971308 2.22408697503
8424 1 67.3483371705 17.8173976738 3.55367987835
8426 1 67.1754954833 17.8159683081 0.713377259944
8458 1 68.690765833 16.3903032195 2.04435822692
8968 1 68.6886511402 19.2425753517 2.0432111307
8457 1 70.2054742007 17.8169498952 3.3760873452
8489 1 73.0675892944 17.8161076495 3.20481418699
8490 1 71.5479470492 16.3917103357 1.86849850741
9000 1 71.548426055 19.2393026922 1.86506692666
8394 1 70.0320184813 17.8160538878 0.533236794572
8427 1 72.8895579345 17.8152068731 0.356648758744
8521 1 75.9387189445 17.8103714789 3.05144791806
8522 1 74.4069639732 16.3920445885 1.69981033842
9032 1 74.4134927728 19.2354433487 1.6953761114
8459 1 75.7383389473 17.810153421 0.177669390397
8553 1 78.7736778924 17.8087989994 2.87903883432
8554 1 77.2516828836 16.3877791622 1.53006577981
8586 1 80.0710931081 16.3565077288 1.35309680183
9064 1 77.2591470903 19.2293072778 1.51824881259
9096 1 80.087954929 19.2133643579 1.33257780527
8618 1 82.8673724358 16.3661820264 1.19415186167
8585 1 81.6038119411 17.7605788996 2.70446930501
9128 1 82.7787661646 19.1055998248 1.19301502965
8617 1 84.6707383122 17.6757540895 2.73971213411
9180 2 86.3046089146 19.1132217638 1.41451180888
8670 1 85.6486012143 16.7521971319 0.722966229681
9158 2 88.288397705 16.5121110134 3.34086443142
8649 1 88.1847259796 18.6727028248 2.65439461042
9179 2 90.6036725291 18.9288216966 2.55650361516
3609 1 2.66863813849 20.6814543309 2.60131293967
3578 1 1.39909221324 22.1453188815 1.02060738519
4119 1 2.71058490823 23.5110578921 2.58448469909
3641 1 5.53186210134 20.686429188 2.76203343469
3610 1 4.23316868814 22.0876918239 1.23952546741
3642 1 7.03450115692 22.1201672862 1.38095504906
4151 1 5.53070670863 23.527639621 2.73433010973
3673 1 8.41017903652 20.7046230603 2.87321314625
3674 1 9.93502021304 22.1320281334 1.51698764846
4183 1 8.40303198537 23.5301424766 2.85947187393
3675 1 8.62486471945 20.7405082906 0.0702716419588
3705 1 11.2785752176 20.7049633611 3.01563904401
3707 1 11.3976361424 20.6790358336 0.11759929961
3737 1 14.1157288161 20.698665648 3.14958052247
3739 1 14.268478867 20.6926596958 0.290828090207
3706 1 12.7631162948 22.1146228288 1.63499263684
4215 1 11.2711214893 23.5464542541 3.00149721181
4217 1 11.4146270148 23.5278649794 0.120024945509
4247 1 14.1139854453 23.5465112707 3.14549781561
4249 1 14.2722008976 23.5426144107 0.29072684019
3771 1 17.1281426328 20.6974064136 0.464693259907
3769 1 16.9650302721 20.7006303885 3.31454641348
3738 1 15.6188542912 22.1224346142 1.80201199781
4281 1 17.1275177788 23.5506357529 0.46144804912
4279 1 16.9642211629 23.553985297 3.31285197289
3803 1 19.9832444963 20.6970166874 0.642148819048
3801 1 19.8157356753 20.7009727228 3.48745125811
3770 1 18.4720928135 22.1274800029 1.97379783465
3802 1 21.3171684445 22.1357439028 2.14375931983
4313 1 19.9792662128 23.5590540281 0.632195427309
4311 1 19.8088012298 23.563029888 3.48214877993