ITEM: TIMESTEP
8000
ITEM: NUMBER OF ATOMS
10200
ITEM: BOX BOUNDS pp pp pp
0.0 91.5382635842
0.0 28.55
0.0 45.7691317921
ITEM: ATOMS id type x y z
8 1 1.59586573478 1.81206279389 1.05633266015
549 2 2.96913921096 3.2673794871 2.53531609482
39 1 2.8501210752 0.610020118362 2.56213087637
7 1 1.09731566388 2.10297265039 3.80059988452
40 1 4.30258376837 2.05372159018 1.11852324491
72 1 7.07011139361 2.11377027517 1.30775184883
581 1 5.5542464195 3.53616171873 2.6439967102
71 1 5.59694287715 0.647620655929 2.67742169242
104 1 9.91310084651 2.11920612733 1.46174424856
613 1 8.39641501748 3.54998465066 2.8074933508
103 1 8.40923949764 0.694306402197 2.81999061761
136 1 12.7660483781 2.11880836188 1.62147014844
645 1 11.2543615103 3.54826152853 2.96263176827
647 1 11.4244157694 3.54706754359 0.117834464092
677 1 14.1110328199 3.54407681475 3.12690280406
679 1 14.2778944933 3.54510088133 0.281668219096
137 1 11.4253639137 0.691311486931 0.113908136205
167 1 14.1096361868 0.691663074125 3.12638214649
169 1 14.2768051342 0.691406823744 0.280091345819
135 1 11.2563986358 0.694035678648 2.96540096466
168 1 15.6206350289 2.11660241227 1.78875184851
711 1 17.1285776701 3.54528921004 0.448655436569
709 1 16.9648199893 3.53868538791 3.2999748623
199 1 16.9658866393 0.686804891465 3.29697002846
201 1 17.1273585799 0.691014956997 0.446315389328
200 1 18.4683494735 2.1168565944 1.95511118187
232 1 21.3118262799 2.11764847368 2.12420404214
743 1 19.976961823 3.54719343218 0.618410567333
741 1 19.8070001359 3.53852183105 3.46926780175
231 1 19.7934122364 0.700477772614 3.44727916696
233 1 19.976537867 0.691306398572 0.61554792471
264 1 24.1539749389 2.11989561319 2.29878877039
775 1 22.8252578545 3.54770619423 0.790161290476
773 1 22.6405879635 3.5400782946 3.64311818395
265 1 22.8226885281 0.693278805411 0.78627292287
263 1 22.6517391363 0.702731869289 3.61997027338
295 1 25.4736456313 0.691760200888 3.81248323499
297 1 25.671056593 0.696548135145 0.958191328361
807 1 25.6713750875 3.54687618714 0.962206553199
296 1 26.995796817 2.12292776398 2.47517678986
839 1 28.5097703856 3.55258196815 1.13246028066
329 1 28.5143050225 0.702456932216 1.12917613081
328 1 29.8383600464 2.13407948343 2.64246554174
360 1 32.6745353538 2.14522948297 2.81418721981
871 1 31.3556831939 3.5610834351 1.30004820087
361 1 31.3545735853 0.713802514995 1.29839037596
392 1 35.4927527598 2.1597686433 2.99570103036
394 1 35.7243632737 2.146011136 0.125135926858
903 1 34.1956958357 3.57296140008 1.46741800774
393 1 34.1899492146 0.72116359032 1.46902219846
426 1 38.5325907692 2.19380788926 0.283416266582
935 1 37.0204278846 3.611481686 1.65821688122
967 1 39.8009803493 3.64986601377 1.79901166947
424 1 38.2688462001 2.23240875399 3.20817303987
457 1 39.6103190401 0.801298731826 1.91126298596
425 1 37.0217929899 0.735329049606 1.64796454783
999 1 43.5198393367 1.68273615525 2.12614241777
456 1 41.0237162262 2.1807119771 3.35049495966
1510 2 42.1852999066 3.65930644896 2.07748852712
458 1 41.4578631795 1.82714737716 0.584985889496
1000 2 45.1417690809 3.60506726097 1.23407892982
5650 1 47.4666626365 3.54042308263 1.80182094598
5649 1 45.9821757244 2.20129988805 3.13600126178
5651 1 45.8135042521 1.7900596967 0.184241941869
489 1 45.1836576976 0.0958972379228 1.87609694638
5140 1 47.4975035933 0.69867793549 1.8792306822
5173 1 50.226170945 0.759107230006 1.78370336939
5682 1 48.8636268743 2.15226982449 3.22959574781
5619 1 48.6525778801 2.22666889612 0.257953793802
5683 1 50.168460627 3.5801913424 1.71485016327
5205 1 53.0034275755 0.734762628903 1.6099479788
5714 1 51.6793422783 2.17579108644 3.11691169934
5746 1 54.4784766319 2.1631535379 2.95239130943
5652 1 51.4946720468 2.144519665 0.229951036472
5715 1 52.9768797364 3.59517680661 1.58135900587
5684 1 54.3049759864 2.16096359943 0.0760669862418
5237 1 55.8020635146 0.722003557649 1.434585873
5778 1 57.2983436826 2.14996252336 2.78128081661
5747 1 55.7980256479 3.58734216184 1.4273433492
5269 1 58.6337119848 0.716059475305 1.26676973214
5301 1 61.4784281365 0.712094246988 1.09457506001
5810 1 60.1383651833 2.14229235243 2.6082056094
5779 1 58.6336151463 3.5760791554 1.26432889177
5811 1 61.4795895398 3.56866293736 1.09380825528
5331 1 64.4971567338 0.707357568906 3.76470021659
5333 1 64.3274631594 0.709772048504 0.916578454595
5842 1 62.9869676631 2.13756362643 2.4308779651
5841 1 64.4986342971 3.56193736231 3.76501514128
5843 1 64.3288020927 3.56496265342 0.91682440252
5875 1 65.8364459025 2.13579400995 2.249768496
5364 1 67.3448480718 0.706994198146 3.58146184211
5366 1 67.1764408598 0.709548672522 0.734764091582
5908 1 68.6839842196 2.13640813445 2.0672616715
5874 1 67.34625516 3.56171201633 3.58264805119
5876 1 67.1777231229 3.56444146536 0.736048847888
5397 1 70.1890685476 0.707784868088 3.39822582922
5429 1 73.031576028 0.70873689453 3.21845259879
5940 1 71.5315840066 2.13868137586 1.88713696981
5334 1 70.0249514494 0.711564973237 0.553258503165
5367 1 72.8771210236 0.716871093972 0.377426452824
5907 1 70.1908128221 3.56330086603 3.40018499627
5939 1 73.0363188482 3.56510611092 3.22146056836
5844 1 70.0267616033 3.56599163634 0.555779455379
5877 1 72.8817116166 3.56777997216 0.3819727637
5461 1 75.8957427412 0.71491508169 3.06321075379
5972 1 74.3884329382 2.14113817189 1.72053308631
5399 1 75.7281062763 0.726611000935 0.20708927909
5971 1 75.9085302641 3.55469582678 3.06990291921
5909 1 75.7396349754 3.56578439918 0.215530487794
5493 1 78.755927673 0.706350786438 2.90474416865
6004 1 77.2505058989 2.13920597741 1.56341628655
6036 1 80.1331853119 2.13204757884 1.41930293813
6003 1 78.7849845369 3.52702846902 2.92549411126
5431 1 78.584765408 0.731532250034 0.0483081347522
5941 1 78.601089964 3.55666115501 0.0568211024863
6068 1 83.0304970599 2.10027634819 1.35035804839
5525 1 81.5960746572 0.573778982283 2.66422789603
6035 1 81.6917241062 3.54561884797 2.78234823645
6610 2 86.8638560481 3.04535940074 0.47610186505
5590 1 84.6088971242 0.434547498625 2.44001972723
6608 2 84.3440205726 3.97651834057 2.44723266836
6067 2 86.258223411 1.6472057743 3.74868474578
5609 2 91.1645111354 2.50154844027 1.9057864953
6120 1 89.2247767464 2.93258119639 0.484099993034
5608 2 89.3574655032 0.498747362792 3.36793008505
518 2 1.5243816096 5.40682965415 0.804780194056
1059 1 2.62467534352 6.77046184452 2.33280774267
1028 1 0.848943993967 7.84996654354 0.481229752589
550 1 4.17423699901 5.02620064701 1.18496257587
582 1 7.05201534736 4.98895285585 1.31411190924
1060 1 4.30083044571 7.93538821056 1.12828338312
1091 1 5.51955160295 6.44172210587 2.63515160358
1092 1 7.06363470623 7.85209816801 1.30196014264
614 1 9.91085530884 4.97831431996 1.46304925304
1123 1 8.39482935491 6.41367818058 2.80295439672
1124 1 9.91313397808 7.83464894341 1.45723025764
646 1 12.7668444506 4.97327376293 1.62174799384
1155 1 11.2553920587 6.40431226017 2.96014544134
1156 1 12.7660894256 7.83034642414 1.61886159953
1157 1 11.4254637634 6.40160823771 0.116749261075
1187 1 14.109736138 6.40061977519 3.12452961596
1189 1 14.2776493415 6.39980659325 0.281060673829
678 1 15.6204990481 4.97061351979 1.7892010284
1188 1 15.6169391125 7.82926711647 1.78579387337
1221 1 17.1279123458 6.40007989884 0.449226015295
1219 1 16.9590880371 6.39915639789 3.29530273878
710 1 18.4680822693 4.9710456499 1.95896519092
742 1 21.3141430747 4.97311186457 2.13147918835
1220 1 18.4660658892 7.82849903742 1.95713613725
1252 1 21.3150963085 7.82709581864 2.13280464227
1253 1 19.9772978199 6.40044412159 0.620861208137
1251 1 19.8038382292 6.40009378055 3.4680287705
774 1 24.1580425701 4.97306147099 2.30842936024
1284 1 24.1641069025 7.82382990254 2.31504318806
1285 1 22.8269390131 6.39940844403 0.794921364576
1283 1 22.6504042375 6.40171515182 3.64680931884
1317 1 25.6694990734 6.39782451445 0.969962411781
806 1 26.9937715107 4.97547274513 2.4863855007
1316 1 26.9935218636 7.81851355093 2.48647885755
1349 1 28.5049203352 6.39961454862 1.14062467276
838 1 29.8316982227 4.97927481015 2.6517352828
870 1 32.673836563 4.98745897609 2.82321584072
1348 1 29.8211020801 7.81827926398 2.66325073208
1380 1 32.6658963002 7.82056017814 2.83633003318
1381 1 31.3519674289 6.40523778688 1.30687179036
902 1 35.5046073048 5.0085867082 2.99408971753
904 1 35.7394661378 5.00925699712 0.126614080108
1412 1 35.4754565236 7.81650895679 3.02956339965
1413 1 34.2043601493 6.41545866202 1.47352832835
1414 1 35.7543079565 7.83236835898 0.131018686056
1445 1 37.0905935446 6.44984120051 1.63576304216
934 1 38.3407763165 5.08525745559 3.19491567782
1444 2 37.9830055993 7.87620464257 3.46310989882
1477 2 39.8103594298 6.29416997399 1.43512300344
936 1 38.5046156034 4.95624030855 0.207584898683
1446 1 38.642559273 7.87485048546 0.108507111919
966 1 40.9763665619 5.29826608098 3.36475258092
1986 1 41.3831133266 7.74397940525 0.175106560874
1509 1 43.1157573549 7.17684383908 3.36287912135
6159 1 46.1758797814 5.01428134332 3.24972497316
6160 1 47.3113659997 6.44533272125 1.70756531471
6669 1 46.0724833014 7.83112017405 3.38271911989
6671 1 45.6740030382 8.00418529119 0.474727171617
6161 2 44.7277466552 6.41623724274 2.07748970924
6192 1 48.8165785013 5.02189982949 3.20183999221
6193 1 50.1315166473 6.47082053923 1.71190506808
6129 1 48.7261327502 5.03283727825 0.325944357793
6702 1 48.8085731933 7.85203419762 3.21918789776
6639 1 48.6144925816 7.94021310565 0.329527151222
6224 1 51.6389172501 5.02391025417 3.08527445444
6225 1 52.9630242594 6.46484885734 1.57873445257
6256 1 54.4636299871 5.0192478205 2.9394187086
6162 1 51.4892355053 5.0599676918 0.229868366791
6734 1 51.6208444514 7.87388043622 3.08263688877
6766 1 54.4573477328 7.86899942078 2.93717925348
6672 1 51.4213128998 7.89522343363 0.198638980797
6194 1 54.2929951395 5.02597077941 0.0684765183936
6704 1 54.2847445802 7.88091289874 0.0639271157461
6257 1 55.7924584422 6.44274424757 1.4226510284
6288 1 57.2965268053 5.00808897016 2.77759971816
6798 1 57.2953461289 7.85828454131 2.77479815586
6289 1 58.6344559433 6.43072300251 1.26168337347
6320 1 60.1398810338 4.99820668081 2.60682426172
6321 1 61.4819547818 6.42317106832 1.09230995497
6830 1 60.1416905248 7.85102739922 2.60471845452
6351 1 64.5005419101 6.41729475898 3.7636899424
6352 1 62.9890483598 4.99246934153 2.43028138563
6353 1 64.3311871772 6.4196875306 0.916143851526
6385 1 65.8383458374 4.99069377325 2.24997141903
6862 1 62.991317509 7.84699763147 2.4286856815
6895 1 65.8406735043 7.84594775023 2.24882589127
6384 1 67.3482116018 6.4176695014 3.58184192926
6386 1 67.1801789409 6.41909517803 0.736044427415
6418 1 68.6861557062 4.99148736444 2.06826924901
6928 1 68.6892823564 7.84643738046 2.06747551266
6417 1 70.1944232248 6.41927469016 3.39973004143
6449 1 73.0440546832 6.41865030535 3.22183070349
6450 1 71.5355878158 4.99265575023 1.88889238006
6354 1 70.0302685254 6.41955496862 0.556274425127
6387 1 72.8874492802 6.41689723812 0.382906041318
6960 1 71.54066156 7.84579869742 1.88827989233
6481 1 75.9160755451 6.40219181696 3.06810289547
6482 1 74.3975677537 4.98768399303 1.72376211992
6419 1 75.7463932156 6.4092521299 0.216631667017
6992 1 74.4010126714 7.83773877911 1.72155768242
6513 1 78.7593695372 6.39514273326 2.91000023505
6514 1 77.2610378039 4.97210463947 1.56797312588
6546 1 80.1141911239 4.95888840493 1.41462086131
7024 1 77.2505468246 7.83542922338 1.55995985596
7056 1 80.0618065349 7.85944301472 1.40094167807
6451 1 78.5921921735 6.40469872093 0.0530619659616
6545 1 81.5382489722 6.45715306808 2.72760255836
6578 1 82.8820979789 5.08549609749 1.19354849376
7088 1 82.9261515231 7.84557413956 1.27377370722
6577 1 84.5541560578 6.4362926206 2.58733270244
6609 1 85.8699042479 5.1825534303 0.907641616046
7138 2 87.1364474172 5.55374036253 2.90572034448
7120 1 85.614398952 7.96509355873 1.01563896383
7118 1 86.1502774116 7.83997284864 3.74365901237
6100 1 88.5504489174 5.22965582572 0.994818716971
6119 1 90.8704210244 4.71380672581 1.62148384471
7140 2 90.2707176539 7.02102534177 1.72643549319
6579 1 89.4972481127 5.62629361174 3.66951411628
1569 1 2.5876106768 9.26474963706 2.41611373393
1539 1 1.32929056345 10.64143375 0.932686799697
2079 1 2.62834105341 12.1090351008 2.50948279772
1570 1 4.19513581592 10.6782772188 1.14984516363
1601 1 5.53873187162 9.29573680254 2.6730127052
1602 1 7.07678438043 10.6968661486 1.30756429792
2111 1 5.56059026436 12.0980328628 2.67297678503
1633 1 8.40391149019 9.26262322466 2.80671336738
1634 1 9.90921595189 10.6958062435 1.4515427361
2143 1 8.41964978148 12.1073811821 2.81790307915
1665 1 11.2544159878 9.26125296442 2.95630972958
1666 1 12.7585346236 10.6924222751 1.61447358562
1667 1 11.4246095397 9.25901988221 0.113232062
1697 1 14.1054532816 9.25991694072 3.12102820895
1699 1 14.2736095721 9.25905300386 0.278167591168
2175 1 11.2423115162 12.1257073358 2.95057354272
2177 1 11.409750219 12.1270070708 0.108329427856
2207 1 14.1008681099 12.1172122645 3.11834372964
2209 1 14.2679933181 12.1179814989 0.275393337974
1698 1 15.613237482 10.6875003468 1.78293565492
1731 1 17.1259694453 9.25723006347 0.447681660527
2241 1 17.1248366444 12.1131338922 0.446489723278
1729 1 16.9554249352 9.2576226768 3.29245838974
2239 1 16.95424512 12.1127799793 3.29161359947
1730 1 18.4655547739 10.684474023 1.95652962866
1762 1 21.3162234723 10.6814196693 2.13490202932
1763 1 19.9775640371 9.25542966085 0.621712300684
2273 1 19.9779079632 12.111140208 0.622786586795
1761 1 19.8034908466 9.25552976318 3.46778476069
2271 1 19.8041295674 12.1101324065 3.46868247787
1794 1 24.1631899483 10.6776731411 2.31637874809
1795 1 22.827086791 9.25248920675 0.799042698952
2305 1 22.8270147025 12.1095954894 0.801699918041
1793 1 22.6534897492 9.25075478089 3.64900137072
2303 1 22.652109932 12.1075390025 3.64998460078
1827 1 25.6681385357 9.24766939323 0.974617791452
2337 1 25.667452176 12.1080782008 0.976842621047
1826 1 26.9906091808 10.6695297648 2.49191035563
1859 1 28.5009570945 9.24423487039 1.14602171928
2369 1 28.4980136235 12.1028839631 1.14789252518
1858 1 29.816571359 10.6667766531 2.66165199164
1890 1 32.6515347168 10.6603443044 2.83697749084
1891 1 31.3446711383 9.24261292648 1.31446619069
2401 1 31.3349160032 12.0937236873 1.3185246922
1922 1 35.4580175246 10.660424445 3.01278915965
1923 1 34.1969237427 9.23605429853 1.48428150243
1924 1 35.7449143629 10.6485387421 0.14921804531
2433 1 34.1664239481 12.0870564519 1.49073112685
1955 1 37.0566436479 9.19796730714 1.6798298701
1954 1 38.3415616879 10.6977119311 3.13885613128
2465 1 36.9072795156 12.0731134064 1.69332873881
1956 1 38.5177524866 10.5693189225 0.32530673994
1987 1 39.9164769538 8.97144324073 1.93636905954
1988 2 40.2092223295 11.3930891294 1.46303417179
2019 2 42.3558853469 8.85154616439 1.76618505415
2530 2 43.3946166722 12.0536544785 1.18234237398
2017 1 41.9797216806 10.339674539 0.0940651666986
2020 2 45.1975341887 9.61047601526 2.24063910453
7179 1 46.3695408203 11.0091704229 3.38958673666
7181 1 45.613119464 10.9043175455 0.475724291833
6670 1 47.3847797087 9.21884739748 1.84943188579
6703 1 50.1052511416 9.31266054645 1.70640231762
7212 2 48.8809395376 10.6965660333 3.27147996485
7149 1 48.4860673278 10.8304454135 0.390360978415
7213 1 50.2037931403 12.1164899738 1.71235249123
6735 1 52.9387431822 9.29531998992 1.56647261634
7244 1 51.6285973399 10.6916899964 3.10015589481
7276 1 54.4512356402 10.7030292371 2.93296639094
7182 1 51.4083682631 10.7138218304 0.191409276118
7245 1 52.9401965327 12.1211564383 1.56522594888
7214 1 54.2716852707 10.7095417337 0.0549082367456
6767 1 55.7889510313 9.28860303049 1.41921516226
7308 1 57.2937364705 10.7043040804 2.77213985379
7277 1 55.7829995045 12.1267040026 1.41526153134
6799 1 58.6346494968 9.28056084686 1.2592726203
6831 1 61.483789456 9.27603808382 1.09045026974
7340 1 60.1422604351 10.7019285287 2.60258594997
7309 1 58.6334195615 12.1274979672 1.25730891855
7341 1 61.4844257662 12.127537919 1.0889102031
6861 1 64.5023824898 9.27294402464 3.76171008325
6863 1 64.3335222549 9.27405847905 0.914647887005
7372 1 62.9928982065 10.7008764535 2.42684094948
7405 1 65.8428748057 10.7008220722 2.24722640901
7371 1 64.5037034553 12.1277442058 3.76019668405
7373 1 64.3350844048 12.1277833492 0.913140946713
6894 1 67.3506493051 9.27350861022 3.58028007784
6896 1 67.1829720206 9.27344815863 0.734729323939
7438 1 68.6922243317 10.7006749577 2.06599991451
7404 1 67.3527496372 12.1283103382 3.57919665068
7406 1 67.1850930421 12.1273806085 0.733051701424
6927 1 70.1984428134 9.27411393211 3.39864264151
6959 1 73.049264799 9.27248270603 3.22151166579
7470 1 71.5435981459 10.698929992 1.8865168482
6864 1 70.0339183703 9.27252970182 0.554666114346
6897 1 72.8903065076 9.26794729612 0.379388754371
7437 1 70.2011191319 12.1275871964 3.39831669699
7469 1 73.0506040194 12.1254320342 3.2225490554
7374 1 70.0357359716 12.125460456 0.552187923406
7407 1 72.8883439661 12.1220577353 0.374834326936
6991 1 75.9069082232 9.2635374867 3.06232896989
7502 1 74.3973114556 10.6948643077 1.7166020412
6929 1 75.7403522199 9.2639081004 0.209909135718
7501 1 75.8965084659 12.1282801603 3.0575662648
7439 1 75.7341547019 12.1247533473 0.205131944079
7023 1 78.7460468535 9.27528806297 2.9118288538
7534 1 77.236471706 10.6977659444 1.55734782923
7566 1 80.0818262655 10.7207359102 1.42438820504
7533 1 78.7288109757 12.1334615733 2.90766696574
7471 1 78.5679260031 12.1263304817 0.0518743774361
6961 1 78.5757558446 9.28006204529 0.0503946833647
7055 1 81.587101183 9.28404081666 2.76842702567
7598 1 82.9261659781 10.7600810885 1.32423407067
7565 1 81.6071307415 12.1865499563 2.7872628102
7119 2 87.4942382883 8.72537344693 1.96053592206
7597 1 84.4793328379 12.1981006376 2.73294040284
7087 1 84.3414336972 9.2879270521 2.66911433304
7630 1 85.8579930603 10.7568396462 1.31000545062
7628 2 86.8130546251 11.4888612503 3.55949287413
6630 1 89.1963340641 8.29210598075 3.62850747021
1538 1 91.3103427689 9.2115442073 2.41248755664
7568 1 88.4721912127 10.6722373227 1.85818318826
7137 1 89.5847990041 8.91755397725 0.693025322702
7139 2 90.5975071016 11.0136063184 0.845934315801
2589 1 1.43669203457 13.4757829931 0.949936780577
2557 1 2.7935540771 14.9101222765 2.52952525952
2047 1 1.01819342711 13.6027445704 3.80876852566
8159 2 0.809810759659 15.9399604031 3.02463565525
2080 1 4.23539898672 13.4577075427 1.19367823192
2112 1 7.1037337658 13.5061527694 1.32561953393
2621 1 5.57984726436 14.9216514514 2.68630078797
2144 1 9.89334904353 13.5544904086 1.43532853264
2653 2 8.42016243533 14.9519334861 2.84917825968
2176 1 12.7484288798 13.5497603683 1.61194176751
2685 1 11.2367564932 14.9666201176 2.95468358384
2687 1 11.3923985228 14.9756094928 0.103243639814
2717 1 14.100740591 14.9671023439 3.11933509717
2719 1 14.2658231368 14.9690233113 0.273383377939
2208 1 15.6117218626 13.5417288321 1.7815994012
2751 1 17.1243290385 14.9672477654 0.445697183112
2749 1 16.9538435829 14.966395332 3.29180884444
2240 1 18.465295432 13.5392140667 1.95646963096
2272 1 21.3160769072 13.5387458705 2.13592555586
2783 1 19.9770572371 14.9667525412 0.622046888836
2781 1 19.8027337237 14.9658886937 3.46841325606
2304 1 24.1614033143 13.5409056905 2.31727979722
2815 1 22.8260679195 14.967989799 0.801030143167
2813 1 22.651409345 14.9699769317 3.65013167559
2847 1 25.6659224918 14.9675140652 0.97671535706
2336 1 26.9905445472 13.5446030536 2.49430584644
2879 1 28.4973437642 14.9635896491 1.14808765904
2368 1 29.8125969823 13.5336572295 2.66399258414
2400 1 32.6319431245 13.5223101535 2.84070973301
2911 1 31.3293188179 14.9534961317 1.31797699576
2432 1 35.4266259877 13.5140839089 3.0432781077
2434 1 35.7147811267 13.5024641745 0.169361304272
2943 1 34.1581988086 14.9341743661 1.50237161447
2975 1 36.9659445578 14.9023309363 1.69720645304
3005 2 38.0529898866 13.5067749755 3.287712702
2498 1 38.7232962789 13.4335019455 0.613468369641
2976 1 38.6017824564 16.201838438 0.452656992959
2974 1 38.3746897588 16.1278057988 3.2851101886
3008 1 42.4266033776 14.0446912587 0.034549302569
3039 1 43.4660354216 13.834353968 2.8801402026
2497 2 41.1653401833 13.429435666 3.60902631775
3009 1 40.8809444125 15.104185507 1.69509142017
3040 1 43.6431701782 15.5892853946 1.40665596402
7180 2 46.9277291305 12.6044957345 1.47351248193
7689 1 46.0490733921 13.5245225395 3.41812918033
7690 1 47.3376345728 14.9830457262 1.86736537342
7691 1 45.1211005195 13.7337058809 0.905098818861
8199 1 45.9473044335 16.215162226 3.3410199124
3042 1 45.8928490964 16.2988223385 0.559573542548
7722 1 48.7683693137 13.4506938181 3.19417382451
7723 1 50.1062293663 14.9472633262 1.72889196892
7659 1 48.6439841763 13.5776576824 0.313298069317
7754 1 51.6242259337 13.5388517287 3.0859666984
7755 1 52.9383817908 14.9655349228 1.56592124336
7786 1 54.4484991905 13.5448919324 2.92878607841
7692 1 51.4185594726 13.5487547603 0.190871787802
7724 1 54.2684561912 13.5476061784 0.0552756898939
7787 1 55.7827929819 14.9701947797 1.41590327133
7818 1 57.2913217122 13.5486257915 2.7695678548
7819 1 58.6326173589 14.9749498425 1.25738258607
7850 1 60.1417289734 13.5517258976 2.60108476687
7851 1 61.4841886917 14.9788357877 1.08858914831
7881 1 64.503704383 14.9817798288 3.75960332797
7882 1 62.9934039483 13.5538927744 2.42561889858
7883 1 64.335311984 14.9812459504 0.912460618191
7915 1 65.8441088709 13.5550005483 2.24608488848
7914 1 67.3532943561 14.9826739678 3.57869043397
7916 1 67.185492776 14.9816129067 0.732078413451
7948 1 68.6937265628 13.5545059048 2.06489496921
7947 1 70.2010237908 14.9819856846 3.39806254959
7979 1 73.0459747304 14.9819027217 3.22152604427
7980 1 71.5431721002 13.552435866 1.88538620861
7884 1 70.0348322235 14.9800682773 0.550729193791
7917 1 72.8823050916 14.9787762726 0.372037248582
8011 1 75.890279908 14.9871970046 3.0547376734
8012 1 74.3905527118 13.5536997516 1.7128366289
7949 1 75.7271768382 14.981848188 0.199804814258
8043 1 78.7195094441 14.9941040456 2.89154958674
8044 1 77.2338805944 13.5633953255 1.55106488742
8076 1 80.0499379216 13.565940197 1.42343500607
7981 1 78.5878550056 15.0102065054 0.0618269120669
8075 1 81.5605840948 14.9193381848 2.76160718754
8108 1 82.9537135245 13.6314259296 1.31160529902
8107 1 84.4361361978 15.2028768228 2.64993258458
8140 1 85.461986461 13.6586292858 1.03581454219
8648 2 86.8434514844 15.1451040949 2.09347390169
8139 1 87.6759958192 13.0153531156 2.01458032115
8158 2 89.9631017211 13.6234510251 3.02819330891
3099 1 2.77403297425 17.7085393935 2.59797928491
8669 1 1.45982473682 19.1843875741 1.11769322472
2591 1 1.47123876807 16.3635237277 0.968433813512
2590 1 4.25082381454 16.3663453518 1.24916396143
2622 1 7.10714966771 16.3801465596 1.35936829399
3100 1 4.23327814272 19.2573527609 1.25390107962
3131 1 5.59404297909 17.8124239989 2.69951410981
3132 1 7.10519488127 19.2458984853 1.35308703557
2654 1 9.88701980736 16.3880042959 1.44008612907
3163 1 8.41941001161 17.8114151917 2.8363185465
3164 1 9.89152308637 19.2223633134 1.44554105926
2686 1 12.7464778719 16.388263194 1.61340302057
3195 1 11.2379593585 17.8049805252 2.95521508185
3196 1 12.7505937422 19.2364113974 1.61253900752
3197 1 11.3950482818 17.8028134241 0.102474205634
3227 1 14.0991856214 17.8166087849 3.11987906469
3229 1 14.2648966438 17.8157221822 0.274618159343
2718 1 15.6110621398 16.3931562013 1.78204021058
3228 1 15.6107999323 19.2460097822 1.78324391834
3261 1 17.1235394494 17.8208542885 0.445928469034
3259 1 16.9529247258 17.8209741526 3.29180741012
2750 1 18.4642637494 16.3940344299 1.95598429324
2782 1 21.3139295029 16.3950647134 2.13421300166
3260 1 18.4633970898 19.2497114249 1.95595456358
3292 1 21.3141244075 19.2500507585 2.13293389322
3293 1 19.9761735259 17.8225755555 0.620928794118
3291 1 19.8009046812 17.8226951371 3.46680685153
2814 1 24.1643314607 16.396220585 2.3196186174
3324 1 24.1624535401 19.2470674133 2.31528128556
3325 1 22.8261915852 17.8221333846 0.799199219614
3323 1 22.6507215662 17.8214636841 3.64874215286
3357 1 25.6676206655 17.8203611713 0.975370286911
2846 1 26.99052046 16.3941553728 2.48629781671
3356 1 26.9939726118 19.2403483379 2.49431645746
3389 1 28.4990887376 17.815633174 1.14677031154
2878 1 29.8104795197 16.388622502 2.66734443193
2910 1 32.6339377745 16.3781875011 2.84001242475
3388 1 29.8155767483 19.2391178506 2.6630559325
3420 1 32.6432705862 19.2300696081 2.83903498292
3421 1 31.3326734896 17.8084954184 1.31670101023
2942 1 35.462606714 16.3618833203 3.02005564538
2944 1 35.7010897191 16.326383267 0.17727476167
3452 1 35.4604651652 19.2002605447 3.0288368929
3453 1 34.1653697274 17.7875814857 1.49647948075
3454 1 35.6864643331 19.210591701 0.178173765702
3485 1 37.0314655743 17.7315779154 1.68787920165
3517 1 39.6181341047 17.6681366268 1.96526423161
3484 1 38.1197930042 19.167362191 3.27394367915
3486 1 38.5905400996 19.1699629719 0.300194804327
3549 1 43.5166093141 16.3363731971 3.61534575523
3007 1 42.2191687065 17.5274720566 2.07263430895
4059 1 42.9210982624 19.9206298471 2.56025712239
3516 1 40.8490683037 19.2019222407 3.45297840715
2527 2 41.035665798 19.069641817 0.959890756142
2494 2 40.84108763 16.5201866017 3.68208234116
3519 1 41.3788473844 16.7625812071 0.0305924114988
2496 1 44.5335492706 17.736128218 1.91930359011
8200 1 47.2121561525 17.945382583 2.12475655444
8709 2 45.3151813089 19.6992793363 2.44360157614
8201 1 45.7891418375 18.8046492425 0.221698138739
8169 1 48.5910891983 16.3888283399 0.40211784768
8232 1 48.8173151944 16.3815051489 3.20650032219
8233 1 50.099659737 17.8268649007 1.70877051699
8742 1 48.8996422485 19.3090869617 3.22810686364
8679 1 48.5415508501 19.2619108022 0.41787726835
8264 1 51.6131495202 16.3922885838 3.07552338974
8265 1 52.9438745798 17.8147223619 1.57341989066
8296 1 54.4495439578 16.3924102413 2.92871671622
8774 1 51.6188388721 19.2543317479 3.07819260536
8806 1 54.4534414469 19.2462493034 2.93407319002
8202 1 51.4170469659 16.3840145848 0.211494394365
8712 1 51.4386333977 19.2407106897 0.233667087304
8744 1 54.2806636799 19.2460788803 0.0727582442455
8234 1 54.2730513588 16.3917722969 0.0628302709106
8297 1 55.7859083684 17.8207357776 1.42021848085
8328 1 57.2918506134 16.397535852 2.76960801744
8838 1 57.2942361126 19.2507434133 2.77248109274
8329 1 58.6336917395 17.8266502274 1.25953451931
8360 1 60.14131173 16.4027727101 2.60112769449
8361 1 61.4836551766 17.8320280636 1.0896988922
8870 1 60.1414642121 19.2573751933 2.60254174365
8391 1 64.5024438697 17.8361777291 3.75998648299
8392 1 62.9927943733 16.4070919743 2.4255587661
8393 1 64.334158716 17.8354949764 0.912822865381
8425 1 65.843605247 16.4092028571 2.2457752812
8902 1 62.9916160379 19.2619283807 2.42655097524
8935 1 65.8416003739 19.2642864427 2.24616706026
8424 1 67.3516857865 17.8374937316 3.57866018158
8426 1 67.1837870997 17.8368975511 0.73185214406
8458 1 68.6928481948 16.4094246941 2.06430890295
8968 1 68.6899984217 19.2652946053 2.06382402481
8457 1 70.1985605354 17.8382285351 3.39749284673
8489 1 73.0424550923 17.8396157844 3.21993351615
8490 1 71.5397465389 16.4090842546 1.88432378131
9000 1 71.5366660142 19.2666303374 1.88303835703
8394 1 70.0319575122 17.8371127038 0.549965262921
8427 1 72.8776049876 17.8370624557 0.370694635564
8521 1 75.8830501374 17.8402019981 3.05083288495
8522 1 74.3836792139 16.4097175478 1.70973450959
9032 1 74.3807734245 19.2679830147 1.70697304809
8459 1 75.7208420814 17.8365528948 0.197331884238
8553 1 78.6196163639 17.8528535226 2.8897279211
8554 1 77.2267812549 16.4093673329 1.54263757859
8586 1 80.1155151256 16.4880181225 1.47106360255
9064 1 77.2187632389 19.2756800123 1.52817718947
9096 1 80.0577827215 19.3028546394 1.35791378732
8491 1 78.5806353548 17.8391406425 0.0490850951357
8618 1 82.8730801128 16.4603675605 1.2521530542
8585 2 81.9087464331 18.2246592005 2.37339113473
9128 1 83.0450981041 19.5179348334 1.02174788135
8650 1 85.5058930599 16.7226248325 0.996189353017
8617 1 84.390720514 17.9819015899 2.72884633436
9180 2 85.3708720795 19.5379175897 1.16649923969
9158 1 86.4664615232 16.8915996162 3.74876978427
8649 2 87.9253194238 19.1305590919 2.80662927139
2559 2 90.4130087794 16.3591215168 0.684981950469
8647 1 88.1231069579 16.956795458 1.60416359888
9179 2 90.9772394397 18.8797405444 2.92907211712
9097 2 89.5351764913 20.2682332978 0.159710213672
3609 1 2.74910013278 20.7305049168 2.49807897059
3578 1 1.53432931773 22.1751240506 0.920821007913
4119 1 2.76530931448 23.5587452254 2.49010645979
9689 1 0.0947225087071 23.6010435944 2.16517725635
3577 1 1.16680704371 22.1228590787 3.79819084123
3641 1 5.5761583651 20.6868180574 2.69092075799
3610 1 4.29047184467 22.1559536437 1.17920252406
3642 1 7.11452322627 22.1049741028 1.34163078024
4151 1 5.5914007941 23.543199666 2.69202867978
3673 1 8.42650282469 20.6731990484 2.83284079528
3674 1 9.91009268757 22.0899868074 1.45020299698
4183 1 8.43051115982 23.5300157559 2.83315832875
3705 1 11.2490719863 20.6643429371 2.95633887677
3707 1 11.4082172651 20.6574468774 0.104463171685
3737 1 14.1016795797 20.6715594512 3.1210665658
3739 1 14.2675967992 20.6692279474 0.27651566473
3706 1 12.758450082 22.095013593 1.61496262319
4215 1 11.2575297895 23.525393693 2.96202269326
4217 1 11.4227798959 23.5248879298 0.110255012449
4247 1 14.106232961 23.5303307669 3.12445145379
4249 1 14.2722447555 23.5274222276 0.278357685839
3771 1 17.1234270796 20.6756344713 0.447323977668
3769 1 16.9543102993 20.6781524584 3.29330523374
3738 1 15.6137751798 22.1030632926 1.78612077728
4281 1 17.1244012755 23.5304480294 0.447185602864
4279 1 16.9601188159 23.5386157787 3.29791014038
3803 1 19.9759434443 20.677501583 0.620924319561
3801 1 19.801531538 20.6795036182 3.46640516998
3770 1 18.4647689981 22.1068098202 1.95745270513
3802 1 21.3137693375 22.1070836177 2.13122382462
4313 1 19.9757957855 23.5316365779 0.618293554827
4311 1 19.8048888585 23.5418916057 3.46753625665
3835 1 22.8272678587 20.6779575827 0.797559354302
3833 1 22.6484737745 20.6780844649 3.64572820366
3834 1 24.1600007144 22.1072701485 2.31072938002
4345 1 22.8267656946 23.5338192686 0.792318925651
4343 1 22.6422004431 23.5424162511 3.64282923047