ITEM: TIMESTEP
0
ITEM: NUMBER OF ATOMS
10200
ITEM: BOX BOUNDS pp pp pp
0.0 91.5382635842
0.0 28.55
0.0 45.7691317921
ITEM: ATOMS id type x y z
8 1 1.36076047578 2.20095979682 0.944711057876
549 1 2.60405326844 3.73708910008 2.50169989094
39 1 2.60127785729 0.780429110284 2.52250762761
40 1 4.18539459833 2.16427467095 1.16841658586
72 1 7.06835016528 2.13389444617 1.29700930041
581 1 5.55686502501 3.55965676494 2.63581928302
71 1 5.52063443839 0.736854390367 2.66349178892
104 1 9.90593620031 2.13145186803 1.44124698255
613 1 8.40167133475 3.56272873441 2.79299458009
103 1 8.39559028732 0.715133811588 2.80232756282
136 1 12.7534719826 2.13408820628 1.60210821474
645 1 11.2457023104 3.56173899762 2.94690288193
647 1 11.4160641919 3.55531414281 0.090694242238
677 1 14.0939257691 3.56255995144 3.10830340343
679 1 14.2628579061 3.55975972854 0.259293469983
137 1 11.4138719729 0.706443203899 0.0937800293622
167 1 14.0934448893 0.708443527506 3.10886310796
169 1 14.2627804329 0.707090737834 0.260621625984
135 1 11.2453586018 0.710659078155 2.94963565024
168 1 15.6030681269 2.1341149511 1.76907534213
711 1 17.1120232253 3.56153981363 0.430386703651
709 1 16.9425065526 3.56252085913 3.27642426108
199 1 16.9441028275 0.705270107895 3.27737171515
201 1 17.1124735872 0.706336458277 0.431264123024
200 1 18.4524935508 2.13307203929 1.94167855148
232 1 21.2912818217 2.13391294168 2.1163555355
743 1 19.9595500066 3.56523389334 0.603275124629
741 1 19.7878126449 3.56477052036 3.44817962647
231 1 19.7810072233 0.711460782978 3.44163950443
233 1 19.9587719923 0.707132957892 0.604044182695
264 1 24.127037951 2.14143703829 2.28563622782
775 1 22.8025618357 3.57189497892 0.778241788246
773 1 22.6257949874 3.57154293121 3.62009360445
265 1 22.7951897709 0.709866105098 0.775551320554
263 1 22.6218961164 0.713925578163 3.61257691573
295 1 25.4495697987 0.70970069371 3.7898601419
805 1 25.4629373761 3.58427913441 3.79189660837
297 1 25.6331410201 0.712435701355 0.942899750078
807 1 25.6377795177 3.57637521004 0.945192660298
296 1 26.9595696456 2.14504408139 2.45130987121
839 1 28.4676936258 3.5818742824 1.11426072776
329 1 28.4718383892 0.71731525919 1.1124874581
328 1 29.788665653 2.15203112994 2.62360080006
360 1 32.6184721217 2.15271713014 2.79746101463
871 1 31.3011993745 3.58501213203 1.28664143153
361 1 31.3056700362 0.722432967353 1.28501652293
392 1 35.4458006941 2.15651986021 2.97956722554
394 1 35.6579679534 2.14874232891 0.114034232024
903 1 34.1367699663 3.57906747598 1.45258573444
393 1 34.1345968287 0.727728120581 1.45994702729
426 1 38.5009986738 2.13696868164 0.30165087765
935 1 36.9634063496 3.58663336327 1.61747758047
967 1 39.7611766525 3.5974962236 1.79892262106
424 1 38.2275192214 2.14715932494 3.12757504464
457 1 39.797119859 0.715252970232 1.8352849459
425 1 36.9532973418 0.727487554824 1.64239110507
999 1 43.6089957321 2.15292906944 3.52671630612
456 1 41.0449841786 2.26009259885 3.35188939391
1510 1 42.6682535599 3.62503611895 1.72941367003
458 1 41.2217730315 2.14340126005 0.51274101276
5081 1 42.3369031086 0.683421965569 1.97884226039
1000 2 45.0466965658 3.19545922007 1.70192093215
5650 1 47.4349396641 3.51595974865 1.94557025429
5649 1 46.2331594654 2.01361288708 3.37598651586
489 1 44.6600026308 0.663225665018 1.96068585932
5140 1 47.5326663204 0.591677020176 1.89030032573
5651 1 46.0450287313 1.74906324033 0.265665506077
5173 1 50.2410519499 0.751026724117 1.78236259145
5682 1 48.8767356947 2.11163375583 3.28073794093
5619 1 48.552470647 2.08054459426 0.318090333755
5683 1 50.1415325325 3.51423248059 1.73905326783
5205 1 52.9528009054 0.711321257982 1.58331617643
5714 1 51.6792136927 2.15285323748 3.13133992323
5746 1 54.4669579809 2.13516576626 2.94386653345
5652 1 51.4259756504 2.13511767816 0.175831812428
5715 1 52.9486567104 3.5564067353 1.57322188884
5684 1 54.2706323747 2.12514484804 0.0642357395427
5237 1 55.7925718919 0.703672181846 1.42848907785
5778 1 57.3093876988 2.1279868684 2.77546729942
5747 1 55.7916911131 3.55279625628 1.42327761441
5269 1 58.6476625695 0.700840975766 1.26581654239
5301 1 61.5041733906 0.699857701535 1.09566091681
5810 1 60.1639993903 2.12607625817 2.60522644708
5779 1 58.6479987649 3.55207446475 1.26390646979
5811 1 61.5047544542 3.55256506713 1.0956016533
5331 1 64.5317364107 0.699116249477 3.76413306457
5333 1 64.3574809801 0.700044032968 0.919409638559
5842 1 63.017891137 2.1260572622 2.43093145055
5841 1 64.5317505746 3.55191417712 3.76638066767
5843 1 64.3577889312 3.55391163592 0.920771821842
5875 1 65.8683002262 2.12679982629 2.25230490115
5364 1 67.3795685982 0.698866756384 3.58320747579
5366 1 67.2071302807 0.701538270572 0.739019697442
5908 1 68.7147640903 2.12882523639 2.07147491967
5874 1 67.3778573828 3.55349544718 3.58626501319
5876 1 67.2065194688 3.55611052502 0.741555107886
5397 1 70.2210343312 0.700477167408 3.40301440243
5429 1 73.0654178487 0.704370334634 3.22515836609
5940 1 71.5607081397 2.13201166098 1.89393152181
5334 1 70.0555957652 0.7050065108 0.558946687986
5367 1 72.9071481 0.713423648913 0.385015340256
5907 1 70.2201789972 3.55509930874 3.4068342688
5939 1 73.0629713478 3.55738505241 3.23045797704
5844 1 70.0536513485 3.55875097051 0.562322917289
5877 1 72.9046752897 3.56222759516 0.389149744876
5461 1 75.9378039288 0.720436668636 3.07171443221
5972 1 74.4183160134 2.13912818032 1.7289125122
5399 1 75.7570392809 0.731513304184 0.215845906846
5971 1 75.9349126546 3.55395936654 3.07857955875
5909 1 75.7582242597 3.56642729258 0.220921445741
5493 1 78.8187479463 0.749980030554 2.91328925361
6004 1 77.2917304913 2.15160725494 1.5706123686
6036 1 80.2039623337 2.17415482715 1.37562477201
6003 1 78.815551465 3.53965315857 2.92546566401
5431 1 78.5990640951 0.761200355715 0.0432836646889
5941 1 78.6209728283 3.56576572169 0.0487109416846
6068 2 82.7292933544 2.24750123922 0.612191503225
5525 2 81.464552356 0.547834751663 2.91472958043
6035 2 81.4750522082 3.77107975571 3.00527438249
6610 1 84.9175037323 2.52212636306 1.22956486846
5527 1 86.7782608861 1.21478738594 0.358468683505
5590 1 85.1809200997 0.489146427505 2.58434008719
5609 1 91.0811540742 1.26257302199 2.37467663356
6119 1 91.4399579919 3.81271942194 1.99985647107
6120 1 89.3332605453 2.94655907023 0.31406178976
6117 2 88.6998697259 1.5528565924 1.93982130471
5587 1 89.6096380198 0.459504294825 0.169497452046
518 1 1.47069537306 5.06482195655 0.676649131128
1059 1 2.9950509716 6.38103276584 2.26222770071
1028 1 1.4929854145 7.68658625049 0.797758900539
550 1 4.30003288949 4.93664772955 1.05301704469
582 1 7.08184091746 4.97656576929 1.26328611823
1060 1 4.27616186992 7.90470484832 1.04340626011
1091 1 5.60430956745 6.4152214858 2.5877968905
1092 1 7.09044498725 7.84634176231 1.2663022469
614 1 9.91020492739 4.98333516763 1.43646729253
1123 1 8.40505650724 6.41257533161 2.78578618526
1124 1 9.91133418502 7.84095236396 1.43814339324
646 1 12.7531527611 4.98698113185 1.60055509747
1155 1 11.2451537295 6.41525454511 2.94593962034
1156 1 12.7509933605 7.84334092769 1.60057301953
1157 1 11.4178445131 6.41130512358 0.0902620620334
1187 1 14.0918496989 6.41755357944 3.1073723876
1189 1 14.2607774292 6.41467893604 0.257907537335
678 1 15.6013366495 4.98947416075 1.76745490983
1188 1 15.598616431 7.84505603269 1.766031902
1221 1 17.1092734975 6.4174562239 0.427779915772
1219 1 16.9395312601 6.41982549044 3.274726018
710 1 18.449415695 4.99232239879 1.93828646976
742 1 21.2967741203 4.99993961016 2.11283844309
1220 1 18.4477067987 7.84758679016 1.93616593496
1252 1 21.2976167683 7.84993290244 2.1102060625
1253 1 19.9581207291 6.42072652508 0.599991413734
1251 1 19.7864523687 6.42437511222 3.44649102187
774 1 24.1467445277 5.01470986733 2.29181290731
1284 1 24.1581435833 7.85021044226 2.28499455307
1285 1 22.8081005651 6.42632452078 0.774793862566
1283 1 22.6431555962 6.43633514248 3.6213844801
1317 1 25.6287758627 6.41400862529 0.925155381615
1315 1 25.4847976893 6.44855040278 3.79470081636
806 1 26.9609392978 5.01968403162 2.45223158233
1316 2 26.9731391273 7.85049271711 2.31491859642
1349 1 28.4833072969 6.41686108798 1.09697956276
838 1 29.7738655898 5.02081354886 2.63204445499
870 1 32.6159523641 5.00680654028 2.80154760578
1348 1 29.7667881798 7.85345845624 2.62708079836
1380 1 32.622818926 7.85616907244 2.80614911716
1381 1 31.3027956282 6.43595298116 1.28810938883
902 1 35.4348893627 4.98671572367 2.98196780257
904 1 35.6661388082 5.00436617895 0.0983180150938
1412 1 35.4366481805 7.83973545438 2.99351289471
1413 1 34.1435537575 6.42686931562 1.45837829086
1414 1 35.6899755191 7.85175739919 0.127896362351
1445 1 36.947258552 6.37994724846 1.6310427824
934 1 38.2274389302 4.99162610456 3.18471435978
1444 1 38.0396795154 7.77971747673 3.23362622111
1477 2 39.7017943526 6.37107437465 1.97584625723
936 1 38.5119477344 5.01430850626 0.274098616569
1446 1 38.5194561852 7.78025425506 0.337197427414
966 1 41.1246237764 4.84636805532 3.31168620863
968 1 41.2085744053 5.03399707419 0.416690155164
1986 1 41.2474488627 7.54288882241 0.424170347733
1509 2 43.492698225 5.67230084229 3.02188979747
6159 1 45.95680794 4.96772215473 3.43388919477
6160 1 47.185195948 6.3052773399 1.76129855388
6669 1 46.2414554643 7.83633488641 3.41316928047
6671 1 45.6860409175 8.01759005949 0.689154752468
6192 1 48.8196079817 5.0089118057 3.23854195589
6193 1 50.1250648502 6.42084547985 1.74135812293
6129 1 48.7335491367 4.94700398677 0.387265361543
6702 1 48.8090424573 7.83479306556 3.23753707479
6639 1 48.583727439 7.85924399455 0.422206145659
6224 1 51.6295287426 4.9840221231 3.10065343504
6225 1 52.9441142018 6.39998660675 1.57929288963
6256 1 54.4630822391 4.98202937115 2.93889392377
6162 1 51.4136022347 4.96487026601 0.205204941304
6734 1 51.6331839143 7.83702755682 3.10365131066
6766 1 54.4640222303 7.82719930201 2.94189258662
6672 1 51.4321548779 7.82720016324 0.224897758601
6194 1 54.2766026038 4.9794472033 0.0697573164072
6704 1 54.2813926456 7.82534332181 0.0752089189623
6257 1 55.7957604185 6.40327917235 1.42630109703
6288 1 57.3107698336 4.97818268254 2.77338052469
6798 1 57.3137381445 7.82910682677 2.77542493975
6289 1 58.6506541809 6.40407884894 1.2645773632
6320 1 60.1652662604 4.97795419282 2.60490335866
6321 1 61.5061177221 6.4057755707 1.09636943761
6830 1 60.1669012511 7.83109476373 2.60571984457
6351 1 64.5315699452 6.40632636912 3.76794075464
6352 1 63.0185097532 4.97920215506 2.43208656759
6353 1 64.3584285645 6.40821649335 0.92239872826
6385 1 65.8680718623 4.98126064257 2.25486108448
6862 1 63.0191477261 7.83362778191 2.43300634931
6895 1 65.8686410383 7.83650864677 2.25661470155
6384 1 67.3776326398 6.40888641975 3.58929594759
6386 1 67.2069559937 6.41074553962 0.744325700651
6418 1 68.7143838053 4.98354277796 2.07547301634
6928 1 68.7156973641 7.83876626667 2.07822503859
6417 1 70.2213505042 6.41070772009 3.41032846497
6449 1 73.0654593843 6.41065130462 3.23367111171
6450 1 71.5601681703 4.98502275907 1.89800140526
6354 1 70.053970011 6.41244277118 0.565884842395
6387 1 72.9047603255 6.41118864013 0.392869968963
6960 1 71.5626520129 7.83892837893 1.90109520343
6481 1 75.9337352969 6.39484814504 3.07817511032
6482 1 74.4172084679 4.98227623902 1.73278171739
6419 1 75.7547761975 6.40708712586 0.22433656289
6992 1 74.4172151282 7.83176325234 1.73422776121
6513 1 78.7661910058 6.40419045553 2.90536158842
6514 1 77.280185421 4.97105431456 1.57090288595
6546 1 80.1161829552 4.96924259393 1.37938986599
7024 1 77.2591573425 7.83231843019 1.56399492254
7056 1 80.1120587637 7.82858851816 1.39071979547
6451 1 78.5944245958 6.41682170204 0.0558541193395
6545 1 81.6150794755 6.36723833929 2.73141281716
6578 1 82.9680736649 4.82096861894 1.24312250916
7088 1 82.9208913343 7.82302966359 1.24174358937
6608 2 84.7610046527 4.09967692328 2.96669266545
6100 2 87.7794301531 4.52515656916 1.74290530705
6577 1 84.4935751248 6.42872364916 2.61467674442
6609 1 85.5969068917 4.9593820811 0.920397471338
7138 1 87.2964550305 6.70968459561 2.1844869347
7120 1 85.558174193 7.85554357743 1.03270324457
7140 2 91.1346891548 6.31164595174 1.56305090234
6579 1 89.372908086 5.69096757998 2.91043093576
7137 1 89.1971363318 8.09273326627 1.36990544848
6630 1 88.8346650384 7.86784796837 3.8060336289
1569 1 2.62744506779 8.99082268329 2.59501320344
1539 1 1.70946669737 10.5499070323 1.11499225324
2079 1 2.85451942569 12.0579961618 2.50956842654
1537 1 0.991015409183 10.5841649084 3.64325034209
1570 1 4.2677961054 10.5918046504 1.118349448
1601 1 5.56754623145 9.24984131765 2.64440530114
1602 1 7.08136880076 10.6870741758 1.29052348472
2111 1 5.54416340133 12.0935815602 2.6525869263
1633 1 8.4020424176 9.26709317865 2.79521011006
1634 1 9.90228875725 10.7026031212 1.44408816608
2143 1 8.38933717694 12.1256771467 2.79943498948
1665 1 11.2412080873 9.27270309813 2.94662793451
1666 1 12.7465531104 10.7003664637 1.60229278319
1667 1 11.4146704656 9.27051206408 0.0918902075765
1697 1 14.0893760302 9.27311401812 3.10682322559
1699 1 14.257855226 9.27085307223 0.257887286762
2175 1 11.2317699998 12.1328539798 2.94712291221
2177 1 11.4071932383 12.1275885241 0.0968124399905
2207 1 14.0877398575 12.1275341351 3.10645834498
2209 1 14.255540338 12.125225762 0.259230596894
1698 1 15.59708183 10.6991877598 1.7657898147
1731 1 17.1076578616 9.2721103136 0.426745992302
2241 1 17.1069454538 12.1250183563 0.426780691194
1729 1 16.9383673246 9.27397648667 3.27393477581
2239 1 16.9381096019 12.1266112041 3.27314122585
1730 1 18.44831004 10.6999584907 1.93622086839
1762 1 21.3025559515 10.6984514666 2.11302502758
1763 1 19.9589549991 9.27405287287 0.599894293689
2273 1 19.9602966534 12.1258078343 0.601616337193
1761 1 19.7882199036 9.27504041544 3.44636261233
2271 1 19.7899339944 12.1265632223 3.44548002614
1794 1 24.157846297 10.6877666487 2.29468295888
1795 1 22.811318674 9.27222283159 0.776206440127
2305 1 22.8139655899 12.1267237462 0.78205140533
1793 1 22.6480099867 9.26673573583 3.62205671434
2303 1 22.644387455 12.1270404808 3.62049221403
2335 1 25.4826370488 12.1300996343 3.79313570631
1825 1 25.4899615015 9.25116009416 3.79568854589
1827 1 25.6311255162 9.28528665013 0.925805422747
2337 1 25.6466070284 12.1278952484 0.946462968694
1826 1 26.9637832463 10.6844133212 2.45309240046
1859 1 28.4836019354 9.28776012084 1.09820693732
2369 1 28.4655867354 12.1280403415 1.11717644341
1858 1 29.7673148058 10.6897297702 2.63659388972
1890 1 32.6166209966 10.7016542992 2.80836137611
1891 1 31.3023841942 9.27652201205 1.29275051529
2401 1 31.3002556156 12.1286856702 1.29899540535
1922 1 35.4494956006 10.7136319174 2.99703840858
1923 1 34.1568087743 9.28390904481 1.47083034002
1924 1 35.7145818745 10.7256425592 0.169878558157
2433 1 34.1409633643 12.1186304801 1.461308176
1955 1 36.9800358336 9.25843049219 1.66429882022
1954 1 38.1887001097 10.7072907778 3.19345959286
2465 1 36.9704977417 12.1658833684 1.72064799398
1956 1 38.5376866545 10.7105020567 0.494109571033
1987 1 39.7050232355 8.99314363141 2.107476225
2019 2 43.1381483948 8.17873723967 1.43944002711
1988 2 40.9508497695 10.6747029873 1.35475606142
2529 2 43.5100214727 10.7864521158 3.71475824394
2020 1 44.6880369817 9.33930182642 2.4378187922
6670 1 47.3239197442 9.34397107841 1.88462525482
7179 1 46.1578063198 10.7783903701 3.47724003559
7181 1 45.7431081984 10.8700695136 0.585819429776
7180 2 47.4608924403 12.1224329554 2.0396025133
6703 1 50.122114234 9.28036389027 1.72853382258
7212 1 48.8957368969 10.6711498994 3.2963121419
7149 1 48.5579925739 10.7635406295 0.341125496238
7213 1 50.1617982705 12.0936629835 1.75413293264
6735 1 52.9560939297 9.25327434563 1.5852065499
7244 1 51.6517817127 10.6737652611 3.11882096182
7276 1 54.4747247065 10.6750668014 2.95071405054
7182 1 51.4444770216 10.6818001181 0.223588111464
7245 1 52.9749611484 12.0951855572 1.59582385134
7214 1 54.2908407818 10.6746319222 0.0759800744135
6767 1 55.8001729622 9.25234216133 1.42967341461
7308 1 57.3173196575 10.6802578708 2.77886046812
7277 1 55.8073306076 12.1023410463 1.43354488991
6799 1 58.6530427745 9.2563689002 1.26598291555
6831 1 61.507398945 9.2599161228 1.09721562119
7340 1 60.1682267795 10.685189659 2.60681589901
7309 1 58.6553641062 12.1090017542 1.26760126672
7341 1 61.5084945284 12.1145058898 1.09796800608
6861 1 64.5313905507 9.2631227882 3.76774420147
6863 1 64.3593944659 9.26316204644 0.923548014681
7372 1 63.0198363031 10.6892401894 2.43336797467
7405 1 65.8698977685 10.6925810021 2.25719890164
7371 1 64.5323234992 12.1195759305 3.76784952011
7373 1 64.3604461343 12.11857841 0.924153173152
6894 1 67.3788342496 9.26605754693 3.58985978907
6896 1 67.2084157552 9.26567940085 0.746161606422
7438 1 68.7184541612 10.6944523939 2.07941256317
7404 1 67.3811928913 12.1224253417 3.59024494705
7406 1 67.2104197253 12.1207899864 0.747060121947
6927 1 70.2248238532 9.2676121813 3.41177496288
6959 1 73.0713767897 9.26607572184 3.23678177803
7470 1 71.5671166092 10.6932950008 1.90289717314
6864 1 70.0563298976 9.26626861781 0.568134370515
6897 1 72.9065299408 9.26205770135 0.393886775441
7437 1 70.2298935333 12.1229949386 3.41305443172
7469 1 73.0802316145 12.1186477591 3.24050933241
7374 1 70.0596807901 12.1202282516 0.569275198263
7407 1 72.9093010252 12.1146315976 0.393858378677
6991 1 75.9262025426 9.25356442682 3.07686550316
7502 1 74.4177871844 10.6854480641 1.73406747178
6929 1 75.7504092346 9.25868872452 0.219643154917
7501 1 75.9279303989 12.1098836036 3.07623426713
7439 1 75.752326125 12.1048423624 0.221042696882
7023 1 78.7692217235 9.23610212055 2.92283187798
7534 1 77.2626476846 10.6743611902 1.56884523365
7566 1 80.0708432366 10.6448140325 1.43452983849
7533 1 78.7533725614 12.0959985517 2.9347611291
7471 1 78.5824715663 12.0837701635 0.0486068105452
6961 1 78.5913370017 9.25600407696 0.042140366124
7055 1 81.6096852253 9.23771384995 2.75522249719
7598 1 82.908345758 10.6742129321 1.27870455571
7565 1 81.6003504564 12.0968534947 2.77398278079
7503 2 81.2538715288 12.0663378336 0.0293944126877
7597 1 84.4668180071 12.0830181189 2.5786678172
7087 1 84.4438181617 9.23577465043 2.63398012689
7630 1 85.7440254066 10.6382644881 1.07266114578
7119 1 87.1606929408 9.18036060518 2.46906332836
8139 1 87.2939781936 12.1909103953 2.3215848422
1538 1 91.3061900237 8.75574136608 2.33033419606
7568 2 88.0773224285 10.4081990986 0.930347130228
7139 2 91.1284028902 10.907633546 1.35774479146
7648 1 89.491856549 10.3237108527 3.01748929849
2589 2 1.62679521871 13.2709184236 0.807668086242
2557 1 2.73484909421 14.8202092425 2.37226805269
8159 2 0.571235067455 15.4829893807 3.26729597873
2047 1 1.17594222106 13.3633784164 3.67779778172
2080 1 4.29435554436 13.4742712456 1.10362710066
2112 1 7.06148494625 13.5305395444 1.29824286735
2621 1 5.51087957313 14.9683247795 2.63707582941
2144 1 9.90154238462 13.544471053 1.44230230016
2653 2 8.39271023749 14.9683651375 2.80323241331
2176 1 12.741821287 13.5533500344 1.6048108347
2685 1 11.2304733479 14.9756548706 2.94846751999
2687 1 11.3994848347 14.9729701013 0.104495667603
2717 1 14.0869366601 14.9795164568 3.10650868794
2719 1 14.2536683393 14.9774150596 0.260410716943
2208 1 15.5961939568 13.552170877 1.76556328563
2751 1 17.1052074452 14.9784584229 0.426111289496
2749 1 16.9361779659 14.9796797628 3.2720295542
2240 1 18.4473048773 13.5521691755 1.9352321722
2272 1 21.3016056 13.5549109671 2.11147432413
2783 1 19.9570886045 14.9782288997 0.59812581444
2781 1 19.7859405801 14.9791212601 3.44302766581
2304 1 24.1569802364 13.5683717884 2.29208346514
2815 1 22.8101672882 14.9820448212 0.773504439317
2813 1 22.6452302088 14.9896451031 3.61673602621
2845 1 25.4879429124 15.0079472793 3.78845241512
2847 1 25.6317015557 14.9711835877 0.922441944468
2336 1 26.964374224 13.5744245492 2.45023820264
2879 1 28.485800567 14.9705662374 1.09382285774
2368 1 29.7673043091 13.5690528628 2.63240256817
2400 1 32.6129965121 13.5566847184 2.80379798303
2911 1 31.3058768762 14.9809983365 1.28901465714
2432 2 35.2965083245 13.5473613619 2.98756780993
2434 1 35.7235229934 13.5588022361 0.174700540216
2943 1 34.1509133454 14.9852962074 1.45797778807
2975 1 37.0123163733 14.9249524505 1.74104546988
3005 2 38.4498745798 13.4220720881 3.25337382573
2498 1 38.5512118107 13.5196763901 0.477511612426
3008 2 40.744987408 13.5585816696 1.07863209738
3039 1 43.5623933505 13.371469709 3.43442888354
2494 2 41.0676626009 16.2100457125 3.60581898856
2530 2 43.8848800302 12.6772865398 1.11612063658
3040 1 44.676234397 14.8922276483 2.05083678644
7689 1 46.1986066853 13.532823465 3.46716151924
7690 1 47.4500464215 14.9322360879 1.89242784122
7691 1 45.9447755216 13.4673019464 0.535409461842
3042 1 45.9434352833 16.2549181937 0.547137871375
8199 1 46.1650791121 16.3139535227 3.40146980214
7722 1 48.9343884309 13.5469804386 3.30405306365
7723 1 50.1771903532 14.948271791 1.7299468649
7659 1 48.6584268744 13.4787465315 0.370686028871
7754 1 51.6643497049 13.5262801122 3.11821644603
7755 1 52.9905957869 14.9460110173 1.60166152416
7786 1 54.4845258134 13.527205622 2.95591505891
7692 1 51.4766773892 13.508120163 0.233552412052
7724 1 54.3019291045 13.5228822623 0.0795516217883
7787 1 55.8144299198 14.9560441602 1.43660916759
7818 1 57.3219118812 13.5340350219 2.78153980176
7819 1 58.6589396488 14.9630974819 1.26972039095
7850 1 60.1701171145 13.5399779406 2.60819337344
7851 1 61.5094519304 14.9698874469 1.09888356408
7881 1 64.5334482075 14.9758672309 3.76806848015
7882 1 63.0207716787 13.5450712915 2.43388171923
7883 1 64.3611514255 14.9742187161 0.924563350572
7915 1 65.871425994 13.5484081875 2.25754160339
7914 1 67.3834575349 14.9781635886 3.59023350962
7916 1 67.212139475 14.9758637087 0.747505936646
7948 1 68.7216835729 13.5495023996 2.08008174414
7947 1 70.2339670585 14.9784578316 3.41281167602
7979 1 73.084144393 14.9766973778 3.23769380621
7980 1 71.5723337988 13.5469820932 1.90404370302
7884 1 70.0627051127 14.9746005937 0.569968586005
7917 1 72.9119358202 14.970119638 0.393628319195
8011 1 75.9324075125 14.9730542192 3.06587448728
8012 1 74.4212262138 13.540834551 1.73188241438
7949 1 75.7581905612 14.9592380278 0.217275182754
8043 1 78.7712207416 14.9697174017 2.90541267425
8044 1 77.2642747508 13.5276286392 1.56397274636
8076 1 80.0502464036 13.5139249948 1.43205257867
7981 1 78.5933475496 14.9314922551 0.0376393610967
8075 1 81.5947949804 14.9117399828 2.72815429079
8108 1 82.8962423454 13.4364002324 1.23360320115
8618 1 82.9633518895 16.2156276309 1.28417793266
8107 1 84.3906046902 14.7883157582 2.55469003299
8140 1 85.8400417705 13.564249371 1.14341701418
8648 1 86.7139778471 15.0949291518 3.05315811004
8650 1 85.8676246605 16.1211098262 0.946883819137
2559 2 89.9365643285 14.6391974952 0.944158972338
8158 2 89.3413195068 12.515288336 3.32903610926
8160 1 89.4058418879 12.4215795378 0.901209708233
8647 2 88.7308707453 15.8092732525 3.54095066993
2591 2 1.84480380769 16.3931938692 0.573422330141
3099 2 2.89943663864 18.1162933357 2.81377194413
8669 1 1.75857207164 19.1323228386 0.933100922233
3067 1 1.14725622658 19.4033247135 3.74794401593
2590 1 4.23683755279 16.4153926491 1.15577349578
2622 1 7.06164277211 16.3962117349 1.31061828631
3100 1 4.32824645598 19.2505822794 1.14010657904
3131 1 5.56949346026 17.8395450101 2.67014728265
3132 1 7.08577559993 19.2445839476 1.30352443016
2654 1 9.89926433538 16.3982255191 1.44621614604
3163 1 8.39359957153 17.8240383616 2.80858157664
3164 1 9.89628029082 19.2515729615 1.45058309711
2686 1 12.7384127278 16.4008845715 1.60590408202
3195 1 11.2260353454 17.8226696148 2.9498665053
3196 1 12.7379509075 19.258533817 1.60432946558
3197 1 11.4009525689 17.8220262356 0.1014155725
3227 1 14.081722726 17.832679476 3.10642902449
3229 1 14.2500545361 17.8312548428 0.260894863524
2718 1 15.593453652 16.4061545082 1.76524188688
3228 1 15.5907533198 19.2611524763 1.7653794046
3261 1 17.102891884 17.8333306647 0.425818861849
3259 1 16.9328183352 17.833752812 3.27092033181
2750 1 18.4441406178 16.4056115829 1.93310834864
2782 1 21.2950314329 16.405298457 2.10545770355
3260 1 18.4422973623 19.2601147029 1.93265643976
3292 1 21.2944395664 19.25497322 2.10571946072
3293 1 19.9546587292 17.8325821137 0.596075213503
3291 1 19.7816056942 17.8316270382 3.44019770119
2814 1 24.1568850533 16.4071957305 2.27865586193
3324 1 24.1501034423 19.2413671188 2.28461545397
3325 1 22.8075846142 17.8293180068 0.769844605749
3323 1 22.6405439144 17.8220593169 3.61296570157
3355 1 25.4872585637 17.8087483332 3.78540131682
3357 1 25.6320627796 17.843621805 0.919597883007
2846 2 26.9765201563 16.4090037818 2.30711385402
3356 1 26.9675971117 19.2394866905 2.44527740274
3389 1 28.4896498274 17.8455237087 1.09000266773
2878 1 29.7718751188 16.4091195359 2.61705919353
2910 1 32.6256810822 16.408283685 2.79258318657
3388 1 29.7831947064 19.2434301323 2.62453875101
3420 1 32.6321979049 19.2576761753 2.7943651306
3421 1 31.3117727474 17.8304000791 1.28085602585
2942 1 35.4464119239 16.4024388832 2.97643693039
2944 1 35.7192677898 16.3632314703 0.154132598695
3452 1 35.4255412155 19.2916363729 2.97544811657
3453 1 34.1657687834 17.826438252 1.45427722846
3454 1 35.6751547224 19.2670284106 0.105914867559
2974 2 38.0597882918 16.5807667926 3.16792455512
2976 1 38.4573114403 16.3939106546 0.448301621117
3485 1 36.9522174683 17.8695990483 1.64312579199
3517 1 39.7747216315 18.0166059644 1.93830540763
3484 1 38.2274381672 19.3200767506 3.17648384297
3486 1 38.4327767579 19.2918918836 0.324267418733
3009 2 40.6937540674 16.4438370494 0.701451572519
3549 1 43.459217552 16.3363860101 3.45685949622
3007 1 42.3297145151 17.8371293977 1.88019742949
4059 1 43.5078241768 19.3650191623 3.40571460977
3516 2 40.9974645712 19.4828049346 3.44183475943
2527 2 41.3127133142 19.3777036184 0.290183963658
2496 1 44.7947410529 17.8212371286 2.1316899874
8200 1 47.4509736703 17.7781517983 1.9268202856
8709 2 46.2172855132 19.2638953849 3.45536416008
8201 1 46.0438944814 19.1249798299 0.505708455471
3550 2 44.1698040318 17.6295234413 0.00122029094691
8169 1 48.7241853889 16.405646146 0.397824159154
8232 1 48.9177299016 16.3797684867 3.26413423801
8233 1 50.1760168016 17.8396787364 1.72509614252
8742 1 48.891796961 19.2439826433 3.25974655873
8679 1 48.5945992501 19.2534472989 0.335256591695
8264 1 51.6680372225 16.3904907605 3.10735046232
8265 1 53.0051076097 17.8174334629 1.60833300281
8296 1 54.4927220486 16.3847464737 2.95707331549
8774 1 51.6789705939 19.2425366307 3.11428776456
8806 1 54.5007954662 19.2471398293 2.96254478806
8202 1 51.5287310027 16.3657967562 0.267601414958
8712 1 51.516047052 19.2696480323 0.265829531877
8744 1 54.3251664771 19.2399030763 0.0960443924943
8234 1 54.3115436742 16.3818598902 0.0871604004597
8297 1 55.8237002717 17.8143020601 1.44208603177
8328 1 57.3273363926 16.3902859911 2.78429381886
8838 1 57.3295632566 19.2517363028 2.78680294193
8329 1 58.6617797284 17.8216860702 1.27216772596
8360 1 60.1720178668 16.3970148605 2.60965497133
8361 1 61.5098792535 17.8272062498 1.09977322946
8870 1 60.1725640135 19.2564604599 2.61103828503
8391 1 64.53425207 17.8326327499 3.7683163588
8392 1 63.0214226933 16.4016654604 2.43442208973
8393 1 64.3611562478 17.8302845012 0.924511256407
8425 1 65.8724005785 16.4042390457 2.25754183175
8902 1 63.0216326126 19.2591305123 2.43481583523
8935 1 65.8724455771 19.2602862717 2.25693125899
8424 1 67.3844373449 17.834032856 3.58973008868
8426 1 67.2126353433 17.8313673501 0.747007045497
8458 1 68.7236776525 16.4049596793 2.07980266267
8968 1 68.7235192216 19.2611222999 2.07831516659
8457 1 70.2351631794 17.8353793946 3.41145333124
8489 1 73.0860665645 17.8369560483 3.2342905631
8490 1 71.5746291407 16.4040465761 1.90288871903
9000 1 71.574682644 19.2626594911 1.90102215683
8394 1 70.0634904795 17.8311990997 0.569366946686
8427 1 72.9131674878 17.8297244236 0.393014191983
8521 1 75.9365634084 17.8375251231 3.05669394554
8522 1 74.4243520449 16.4005220633 1.72698491888
9032 1 74.4253542078 19.2648016304 1.72531871131
8459 1 75.7603827831 17.8248429871 0.217072683086
8553 1 78.78538707 17.8376971808 2.86966401221
8554 1 77.2711407405 16.3913239562 1.55006994675
8586 1 80.1139151369 16.3606678316 1.36467088986
9064 1 77.2717126986 19.2669736952 1.54616904244
9096 1 80.100654705 19.2873067997 1.34707695816
8491 1 78.6095464223 17.8121928607 0.0437578452637
8585 1 81.5453774694 17.8458017427 2.64370625687
9128 2 82.7525857335 19.5491096062 1.25800139388
8617 2 84.9978475867 17.1523858107 2.97645606994
9180 2 85.9384851515 19.9640496122 1.04774226099
9127 1 85.9028028451 19.432336412 3.68775050359
8670 2 87.691290426 17.4742136719 0.543245970938
8649 2 88.0250241503 18.9565900007 3.38033642058
9179 1 90.902885139 18.7982734434 1.40219799225
3068 1 89.8088241595 16.7976669057 0.130784427615
3609 1 2.86793569036 20.707180165 2.5181174306
3578 1 1.79939557492 22.1206396941 0.873338215331
4119 1 2.83808240562 23.5799520048 2.51501609867
9669 2 0.421530828445 20.8540690156 2.05201955439
3577 1 1.29249471081 22.1987064499 3.81352429126
3641 1 5.61678107634 20.7213045444 2.66459015542
3610 1 4.32147962977 22.1219426233 1.14056428671
3642 1 7.09623853962 22.1422368059 1.29880492344
4151 1 5.57351167477 23.5749799759 2.67103538497
3673 1 8.39895093615 20.6945880826 2.80732102098
3674 1 9.89898245594 22.1303267837 1.44649364704
4183 1 8.39905241645 23.5709577274 2.80599961238
3705 1 11.2316535748 20.6910503688 2.94957222173
3707 1 11.4030701244 20.6903826676 0.0987634044254
3737 1 14.0810084058 20.6896493272 3.10657206603
3739 1 14.249990546 20.6894890054 0.261015111598
3706 1 12.7410615557 22.1211629622 1.60306136239
4215 1 11.2368176071 23.5548300104 2.95018525363
4217 1 11.4057065784 23.5573413554 0.0958364380868
4247 1 14.0853778056 23.5471293173 3.10784996429
4249 1 14.2545749102 23.5480619969 0.261193102778
3771 1 17.1028922223 20.689152996 0.42719735586
3769 1 16.9320399932 20.6888653188 3.27109552974
3738 1 15.5928045055 22.1181639797 1.76660121556
4281 1 17.1064789194 23.5464060192 0.429536280169
4279 1 16.9359291481 23.5465364818 3.27366650144
3803 1 19.9548947601 20.6869354294 0.597686172084