ITEM: TIMESTEP
12000
ITEM: NUMBER OF ATOMS
10200
ITEM: BOX BOUNDS pp pp pp
0.0 91.5382635842
0.0 28.55
0.0 45.7691317921
ITEM: ATOMS id type x y z
8 1 1.42073938779 1.84758322617 1.04641783606
549 2 2.98535071942 3.14142868565 2.35047387771
39 1 2.79286674788 0.664930103423 2.57727063813
40 1 4.34607234696 2.01071091626 1.06505121245
72 1 7.05126979581 2.13407713415 1.31205364177
581 1 5.51312367447 3.54959364532 2.65441360951
71 1 5.61440845435 0.672257584962 2.70953057853
104 1 9.89915612721 2.13318174325 1.46517995531
613 1 8.38283574894 3.56261738188 2.81607800407
103 1 8.39284911664 0.710952868357 2.8220724023
136 1 12.7542644207 2.13490440221 1.62475586928
645 1 11.2437481594 3.56215575296 2.96921817858
647 1 11.4139949621 3.55975356994 0.120341699853
677 1 14.0999618065 3.56153161705 3.13218609718
679 1 14.2674518041 3.56173029041 0.284771124193
137 1 11.4107188338 0.70664611104 0.115533601607
167 1 14.0976422643 0.710516503092 3.12997232505
169 1 14.2651237767 0.709019795265 0.282413973404
135 1 11.2425967457 0.711137104709 2.9683507105
168 1 15.609606754 2.13476977865 1.79221338229
711 1 17.1183869544 3.56342863039 0.451354777554
709 1 16.9536786843 3.55736491228 3.30440321567
199 1 16.9544609356 0.706016868145 3.30124217109
201 1 17.1165374466 0.709444274821 0.44877608883
200 1 18.4568790826 2.13502207941 1.95795251296
232 1 21.2980178061 2.1339657615 2.12496491599
743 1 19.9653156993 3.56469497024 0.618765804579
741 1 19.7945291257 3.55629009063 3.47197347268
231 1 19.7810686567 0.71869808917 3.45138933471
233 1 19.9647295718 0.709094516134 0.616675528117
264 1 24.1368678899 2.13484451988 2.29642627748
775 1 22.8101764139 3.56350230655 0.786566492114
773 1 22.6238106083 3.55539324772 3.64171363539
265 1 22.8083470286 0.709701557495 0.785218066268
263 1 22.6370532329 0.719109845621 3.62278212292
295 1 25.4548487748 0.707069698503 3.81348127486
297 1 25.6531588873 0.711348704459 0.955190886795
807 1 25.6535747027 3.56125968792 0.955577964612
296 1 26.975926917 2.13619334254 2.4706029821
839 1 28.4895878444 3.5645707025 1.12364815173
329 1 28.4912385761 0.712921964664 1.12414564946
328 1 29.813342936 2.1412849638 2.63474998098
360 1 32.6394670488 2.14345313029 2.80150372954
871 1 31.3243502338 3.56796648182 1.28890733915
361 1 31.3254923206 0.716428162937 1.29104600856
392 1 35.4550036442 2.1540975683 2.97879488905
394 1 35.6787909808 2.15245092557 0.119233897411
903 1 34.1481290231 3.57178394323 1.45472169641
393 1 34.1575520666 0.720821444415 1.46090825023
426 1 38.5128089296 2.2282817318 0.28613795361
935 1 36.9740176599 3.6028831819 1.63121493064
967 1 39.8426509653 3.62113406092 1.80581546554
424 1 38.2239400823 2.22349490845 3.2068053666
457 1 39.6316052012 0.866758242292 1.91084591146
425 1 36.9976022904 0.745562188538 1.64189664129
999 1 43.2429414266 1.56152522551 2.63616805042
456 1 40.9760024095 2.22201173814 3.38185016368
1510 2 42.4666318613 3.78015460342 2.31911725933
458 1 41.5055174544 2.02551956299 0.619557537107
1000 2 45.3535865934 3.76411989847 1.01075141225
5650 1 47.4186566601 3.52303927245 1.80276355038
5649 1 45.8276852848 2.36344976353 3.24690751376
5651 1 45.4429253115 1.59040542151 0.572956608582
489 1 45.1531614078 0.0844312033392 2.23045282467
5140 1 47.3942589571 0.725328286349 1.89500077434
5173 1 50.1686845671 0.74443037958 1.76911451195
5682 1 48.8033815475 2.15369001644 3.26393615869
5619 1 48.6491302997 2.11813979465 0.329200690275
5683 1 50.142945629 3.55393094136 1.7352130405
5205 1 52.9808568156 0.711468873524 1.61851835178
5714 1 51.6480066464 2.14431868752 3.12818240543
5746 1 54.4694273515 2.12732476459 2.97252466937
5652 1 51.4915098594 2.15216619425 0.243993319742
5715 1 52.9798425859 3.56230252333 1.60817761625
5684 1 54.3076023045 2.13039398828 0.0949443888709
5237 1 55.7983082064 0.690845315646 1.45353302643
5778 1 57.2956252885 2.11553785187 2.80508947162
5747 1 55.80311462 3.55105824254 1.45308897546
5269 1 58.6291564078 0.681634940953 1.28615856476
5301 1 61.4749284494 0.680339510969 1.11327093973
5810 1 60.1355539887 2.10986204371 2.63013406416
5779 1 58.63623536 3.54286857785 1.28939628707
5811 1 61.4791536183 3.53878321588 1.11631173407
5331 1 64.5001639146 0.680519220579 3.78125546707
5333 1 64.32676729 0.683386555518 0.934319048055
5842 1 62.9858406573 2.10890609284 2.45027527171
5841 1 64.4991363412 3.53752183238 3.78163492774
5843 1 64.3277299482 3.53897159058 0.935976617017
5875 1 65.8384201895 2.11179392855 2.26682576031
5364 1 67.3514333045 0.684725470159 3.59731589021
5366 1 67.177444855 0.687797737647 0.750483084468
5908 1 68.6889337342 2.11621262065 2.08246079037
5874 1 67.3525448716 3.53991030723 3.59672416098
5876 1 67.1787278364 3.5423206018 0.752427440134
5397 1 70.1955999171 0.686464685622 3.41206570366
5429 1 73.0339281194 0.686526995312 3.22922416453
5940 1 71.5342029322 2.12059172296 1.89940612327
5334 1 70.0251067435 0.690983337875 0.566405984401
5367 1 72.8731472785 0.694154557499 0.38699067654
5907 1 70.2035797996 3.54867899636 3.41012696032
5939 1 73.0348246027 3.54862200427 3.2279909852
5844 1 70.029217006 3.54775179153 0.570448833533
5877 1 72.8736356551 3.55229021364 0.393724582512
5461 1 75.894148055 0.702404254303 3.06865993446
5972 1 74.3791860827 2.1245209555 1.72668584165
5399 1 75.7177419233 0.70188831133 0.210009963357
5971 1 75.8887665035 3.54818166536 3.06977462165
5909 1 75.7132152757 3.54986491599 0.21067504577
5493 1 78.7341475192 0.746568175259 2.90526079397
6004 1 77.2249911076 2.13326610592 1.55392694917
6036 1 80.101351943 2.13058581032 1.38905973828
6003 1 78.7699066261 3.51608623042 2.91777368669
5431 1 78.5490627993 0.72204154771 0.0205651619518
5941 1 78.558184553 3.53769877069 0.0293518489903
6068 1 82.8288767987 2.14789944185 1.07707482774
5525 1 81.6217711432 0.724160786422 2.7356270269
6035 1 81.6672878139 3.5139760694 2.75995314533
6608 2 84.2492825415 3.70238641615 2.35127571562
6610 2 87.3052562988 3.0069958892 1.37447580071
5590 1 84.5819997274 0.994746872978 2.48864483708
5609 2 91.0203712864 2.66041386405 1.94348382608
5608 1 90.8856485281 0.330526138834 2.24116219516
518 2 1.45196826402 5.39949417122 0.789540831499
1059 1 2.45570021904 6.68428114331 2.61161947966
1028 1 1.29204073279 7.8447357213 0.701354072963
550 1 4.10899246438 5.01388168985 1.20014797878
582 1 7.0323276017 4.98376606025 1.32117398024
1060 1 4.20558951636 7.8534651431 1.17269206294
1091 1 5.47006299786 6.37676477455 2.66096768284
1092 1 7.04402927226 7.81480295641 1.31839104885
614 1 9.90129121188 4.98604736286 1.46995458597
1123 1 8.37885725411 6.40475759271 2.81746771259
1124 1 9.89898016451 7.83590004519 1.46851763141
646 1 12.7562076549 4.98794380608 1.62700437686
1155 1 11.2438136142 6.41496499652 2.96998571304
1156 1 12.754216992 7.84363219964 1.62621851441
1157 1 11.4151504452 6.41282128301 0.121938812752
1187 1 14.0986550915 6.41720108262 3.13134005561
1189 1 14.2674345659 6.41629922601 0.28569587132
678 1 15.6099375841 4.98833988587 1.79352535777
1188 1 15.6070858057 7.84655933853 1.79143034626
1221 1 17.1184367281 6.41867365715 0.452819111263
1219 1 16.9484896062 6.41792443129 3.300095512
710 1 18.4571592708 4.98956659053 1.96166301371
742 1 21.2997507161 4.99049104422 2.12995532308
1220 1 18.4554951309 7.8487877434 1.96023934716
1252 1 21.3008824223 7.84888588368 2.13085423012
1253 1 19.9660578189 6.42012152948 0.621284528172
1251 1 19.791681293 6.41989786833 3.46990158711
774 1 24.1385858726 4.98738651641 2.30056829648
1284 1 24.1414438853 7.84704273783 2.30290516676
1285 1 22.8116184387 6.41846509554 0.790027724816
1283 1 22.6311515939 6.41933014816 3.64202362173
1317 1 25.6514651113 6.41645640836 0.959909584293
806 1 26.9764795649 4.98659253052 2.47280727281
1316 1 26.9767903368 7.84384301369 2.4745776203
1349 1 28.4883203463 6.41923425356 1.12784783837
838 1 29.8127246062 4.9927650398 2.63793608439
870 1 32.6385508345 4.99756827843 2.804307615
1348 1 29.8105023786 7.84681616196 2.64346462577
1380 1 32.6441152677 7.85529906052 2.81162148282
1381 1 31.3264516205 6.42692250947 1.29293992118
902 1 35.445338134 5.00048625078 2.97331370944
904 1 35.6731990028 5.00763817696 0.114269563449
1412 1 35.4546240958 7.84357361973 2.98343451042
1413 1 34.1605780624 6.43278749804 1.45623174393
1414 1 35.7051335522 7.85008433332 0.104817173951
1445 1 36.9956548761 6.41718010845 1.60424138644
934 1 38.2579120428 5.00420262245 3.16491885919
1444 2 38.0547160343 7.80307567385 3.21514091604
1477 1 39.8167983131 6.41110152673 1.8379433087
936 1 38.5551383286 5.01282642488 0.295052573659
1446 1 38.6136104073 7.81111855999 0.181788564903
966 1 41.0040674029 5.03969078147 3.45772784225
1986 1 41.5509234044 7.46254636053 0.102815919215
1509 1 42.6776336168 6.51167334681 2.40837911742
968 1 41.4618893102 5.06714835017 0.533495284597
1511 2 41.0239442094 7.66016709276 3.72092168702
6159 1 46.2323399062 5.08727175448 3.24824100498
6160 1 47.5014550042 6.49732482671 1.80104913681
6669 1 46.3898681812 7.89244558733 3.40780476505
6161 2 44.8754901552 6.58439262786 2.1007433722
6671 1 45.9265460882 7.97005323534 0.568723813775
6192 1 48.8341921611 4.97991784963 3.23674992105
6193 1 50.1668712183 6.43090098792 1.73595105923
6129 1 48.7074034877 4.99937588446 0.325982489217
6702 1 48.9228508536 7.90081961838 3.24572337699
6639 1 48.7112676217 7.9117837314 0.321414730478
6224 1 51.6435118387 4.98314730308 3.11428704616
6225 1 52.9817444358 6.40486274305 1.60362357154
6256 1 54.4722454853 4.98043808605 2.97194786223
6162 1 51.4782758014 4.98553503658 0.233854093422
6734 1 51.6677508476 7.83526188467 3.12029838536
6766 1 54.474196187 7.82829847606 2.97374549324
6672 1 51.4967426615 7.83444135019 0.230837063975
6194 1 54.3071543138 4.9810164759 0.0897973379239
6704 1 54.3083063722 7.8301010657 0.0861034561937
6257 1 55.8044508887 6.40366525486 1.45172107556
6288 1 57.2996976091 4.97459498705 2.80757718386
6798 1 57.3015360599 7.82701172333 2.80920274102
6289 1 58.6397386991 6.39962826537 1.29003831467
6320 1 60.1392479783 4.96943776708 2.63328783385
6321 1 61.4822748622 6.39689817286 1.11722629911
6830 1 60.1409641988 7.82611253391 2.63433708234
6351 1 64.4997661135 6.39573689679 3.78102754652
6352 1 62.9873910588 4.96705823969 2.45177188263
6353 1 64.3297042303 6.39565456748 0.93621707476
6385 1 65.8389064429 4.96715833268 2.26693477038
6862 1 62.9890779734 7.82481021736 2.45175793634
6895 1 65.8401849037 7.8241771037 2.26562283612
6384 1 67.3511966731 6.39640325363 3.59400069903
6386 1 67.1798999821 6.39598985279 0.752197311731
6418 1 68.6925759718 4.97176684992 2.08313700808
6928 1 68.6950634824 7.82200785529 2.08139149912
6417 1 70.2045619953 6.39854925021 3.4069472719
6449 2 73.0423597259 6.39785116952 3.22533928123
6450 1 71.532080264 4.96865314517 1.89492805568
6354 1 70.0351624853 6.39672993183 0.573219034524
6387 1 72.8779579924 6.3937260193 0.393286159761
6960 1 71.5386195342 7.82590446801 1.89399287312
6481 1 75.9074155184 6.38297499089 3.06346765482
6482 1 74.3887861958 4.96524846228 1.72285782523
6419 1 75.7174977994 6.38446724341 0.21725012328
6992 1 74.3961763114 7.81734072881 1.72089422286
6513 1 78.7497750408 6.37530273557 2.89141254251
6514 1 77.2363757939 4.95371130826 1.5600447138
6546 1 80.078383982 4.94003909501 1.38588070334
7024 1 77.2303295417 7.80884388782 1.55028045
7056 1 80.0429894212 7.82675022469 1.35968137681
6451 1 78.5522530985 6.37879196853 0.0292925707698
6545 1 81.5354340716 6.41433332825 2.68289924393
6578 1 82.8548762213 5.03938172557 1.1372917605
7088 1 82.8891985447 7.79717389552 1.18371564919
6577 1 84.4959726814 6.40097601443 2.46093117377
6609 1 85.8364628618 4.95194309223 0.94979962057
7138 1 86.8974646903 6.07681553435 3.05095513208
7120 1 85.6969173146 7.79426249408 0.933014492905
7118 1 85.96232 8.14271278727 3.50310752424
7119 2 87.9471452394 8.00586090278 1.49905109294
6100 1 88.3194726766 5.4412097404 1.00643161958
7140 2 90.1501637782 5.80109025508 2.56579506228
6630 1 89.8497618127 8.11288522874 3.36468298662
7137 1 90.0821848271 7.97850666819 0.942171412449
6119 1 90.8536176255 5.86975024073 0.138504685716
1569 1 2.59831141275 9.20260335138 2.51171628244
1539 1 1.41747005961 10.6124145876 0.826402349674
2079 1 2.8151606735 11.9193008529 2.36950343834
1538 1 0.00511787613769 9.35583045579 2.1862485892
1570 1 4.27097203943 10.6065188251 1.10072399553
1601 1 5.55125152749 9.25403616196 2.66087589657
1602 1 7.05889642927 10.6889628313 1.30409637093
2111 1 5.52594982495 12.0961869122 2.6650344263
1633 1 8.38435439247 9.26034902186 2.81338225594
1634 1 9.89567871716 10.6964950672 1.4626998557
2143 1 8.38370287069 12.1232622121 2.81126888616
1665 1 11.2402625871 9.27019887947 2.96710567264
1666 1 12.7502340275 10.7011507809 1.62411181808
1667 1 11.4110270853 9.26812419315 0.120383888181
1697 1 14.0952392164 9.27471466704 3.12937127409
1699 1 14.2645502532 9.27375224925 0.284751818194
2175 1 11.2370878016 12.1291022454 2.96380875107
2177 1 11.4082258255 12.1288365991 0.119640043507
2207 1 14.0908150611 12.1332758758 3.1270800156
2209 1 14.2599330763 12.1336088749 0.283443777894
1698 1 15.6035682763 10.7056280935 1.78985135821
1731 1 17.1168168915 9.27739047507 0.452716346902
2241 1 17.1147235897 12.1362692443 0.453078107332
1729 1 16.9451037163 9.27764496537 3.29771600501
2239 1 16.9430802781 12.1357077161 3.2972660029
1730 1 18.4549187879 10.7081819901 1.9609097348
1762 1 21.3016191289 10.7089485852 2.1341802831
1763 1 19.9661867544 9.27881676665 0.623054064557
2273 1 19.9665067372 12.1387734965 0.626225420759
1761 1 19.7913072115 9.27862901551 3.46969342117
2271 1 19.7928407368 12.138105423 3.47256715566
1794 1 24.1421323081 10.7091505426 2.30806923308
1795 1 22.8111480213 9.27866937448 0.794217857593
2305 1 22.8116854674 12.14013797 0.799522012657
1793 1 22.6334338978 9.27786072779 3.6437112926
2303 1 22.6352855786 12.139561783 3.64874410959
2337 1 25.6480126945 12.1403678027 0.970311108848
1827 1 25.6498696974 9.27708961034 0.964249837506
1826 1 26.9735446524 10.706847385 2.47754788834
1859 1 28.4858557763 9.27666206341 1.1325791298
2369 1 28.484164527 12.1364757592 1.13838530639
1858 1 29.8060597462 10.7019674266 2.64669163382
1890 1 32.6454298169 10.6982831268 2.81850435097
1891 1 31.3268974875 9.27895220634 1.29933863096
2401 1 31.3226006939 12.12841144 1.30700265771
1922 1 35.500933994 10.7121858803 2.98261707175
1923 1 34.1818629486 9.28014270629 1.46769582814
1924 1 35.7256128145 10.7180824907 0.154883610327
2433 1 34.1593758833 12.128058168 1.48315590812
1955 1 37.0213911245 9.23546782058 1.60907982152
1954 1 38.1902400785 10.7210145907 3.13297505187
2465 1 36.9902455745 12.2247461883 1.66136626678
1956 1 38.5881572256 10.7336239241 0.466577906286
1987 1 39.9526549018 8.85168010902 1.77325012086
1988 2 40.2969651573 10.873157122 2.48160564664
2019 2 42.5551659856 8.86747696415 1.4315810139
2530 2 43.4294072285 12.1413471843 1.6719033655
2020 1 44.4819671469 8.91788237736 2.67106055538
7179 1 46.3632485849 10.7649722028 3.34988864935
7181 1 45.4177665239 10.8140255097 0.79162410166
6670 1 47.444542019 9.33675032999 1.82503155994
6703 1 50.2154872406 9.27577643206 1.74569447203
7212 2 48.9786910778 10.6797883728 3.40805504574
7149 2 48.8756664473 10.6431803777 0.203317436653
7213 1 50.2784978997 12.0579385508 1.75210306584
6735 1 52.9877032541 9.25586657627 1.60307916248
7244 1 51.6860270786 10.6672734387 3.1422392643
7276 1 54.4827123933 10.6717379474 2.97753786616
7182 1 51.5165636347 10.6790983567 0.213887641625
7245 1 52.9996330177 12.0859491658 1.60388385649
7214 1 54.31680912 10.6746719157 0.0821190033355
6767 1 55.8075454206 9.25114603276 1.45146162292
7308 1 57.3024106027 10.6774855194 2.81038548516
7277 1 55.8092522167 12.0994069139 1.45272096118
6799 1 58.6409570966 9.25285725883 1.2900118248
6831 1 61.4835308203 9.25315795461 1.11688400246
7340 1 60.1408923084 10.6806712583 2.63442025166
7309 1 58.6397261095 12.1058981576 1.2900224754
7341 1 61.4829721039 12.1082485726 1.11608843689
6861 1 64.5008080797 9.25334118106 3.7801126039
6863 1 64.331428427 9.25236717613 0.935310426452
7372 1 62.9896928102 10.6812040106 2.45097787331
7405 1 65.842240829 10.6802540917 2.26431109393
7371 1 64.5015340661 12.1094190099 3.77888888342
7373 1 64.3323441195 12.1080338575 0.934117047624
6894 1 67.3542603358 9.25209329809 3.59190565232
6896 1 67.1827873795 9.25017662779 0.750984500541
7438 1 68.6960608044 10.6777157425 2.07895182086
7404 1 67.355921023 12.1083623074 3.59096168113
7406 1 67.1842479444 12.1059215667 0.749053256106
6927 1 70.2111520607 9.24642786354 3.40478200093
6959 1 73.0541652203 9.24798181138 3.22418677091
7470 1 71.5487599183 10.6742145794 1.8968150485
6864 1 70.0363415134 9.24556250033 0.569351403367
6897 1 72.8837902623 9.23752054811 0.392339985165
7437 1 70.2091660662 12.1073750121 3.40567416248
7469 1 73.061508297 12.1083704685 3.22711258344
7374 1 70.0359517268 12.1032433385 0.564989747336
7407 1 72.8853583796 12.1010206545 0.384273998422
6991 1 75.9020570324 9.23579010525 3.05796122232
7502 1 74.3953879132 10.6704973514 1.72252147529
6929 1 75.7191033277 9.2349017647 0.209120185812
7501 1 75.9111220399 12.1104046741 3.05790445086
7439 1 75.7223376449 12.1019629303 0.205959673014
7023 1 78.7448145713 9.24487350025 2.88943648542
7534 1 77.2302078202 10.6732414528 1.54856694111
7566 1 80.0521392544 10.6755001547 1.36582681282
7533 1 78.7480903193 12.1121162242 2.8922344484
7471 1 78.5401719929 12.0992391197 0.0210135388028
6961 1 78.5387634506 9.24415981497 0.0203522912211
7055 1 81.5730469432 9.23908907149 2.7129568458
7598 1 82.8242905832 10.7022907898 1.20787906154
7565 1 81.5642637187 12.1163569175 2.71020711134
7597 1 84.454571785 12.0707988713 2.5544912108
7087 1 84.3286152219 9.32338309662 2.46031219802
7630 1 85.5550588172 10.7292639501 0.879290677604
7628 2 86.6069871106 10.492298006 2.91628787615
7568 1 88.0792631066 10.3532312139 0.835310900514
7139 2 90.3417745311 10.6304623027 0.572832526406
7648 1 91.2622537177 12.1084783303 2.18753192616
2589 1 1.49463310794 13.4212841632 0.896882603126
2557 1 2.69559888896 14.889622591 2.50923148549
8159 2 0.482619418251 15.9290600479 3.23244315923
2591 1 1.32991631305 16.2406504797 1.0428345695
2047 2 1.35359531084 13.0847022241 3.45804014496
2080 1 4.26078590963 13.5377484053 1.14103455296
2112 1 7.04435837289 13.5582766849 1.30554718216
2621 1 5.53881503805 14.9399183286 2.70874312924
2144 1 9.89096570722 13.5617895326 1.4590471788
2653 1 8.39298691356 14.9683770623 2.83328467002
2176 1 12.744428204 13.5632373168 1.62122561929
2685 1 11.2330561545 14.9893949375 2.96438991416
2687 1 11.3979587433 14.9979117575 0.115614479555
2717 1 14.0877960542 14.9907880585 3.12655286929
2719 1 14.2559242215 14.9932522794 0.282270685267
2208 1 15.6002611779 13.5637815415 1.7890315525
2751 1 17.11286304 14.9928071345 0.452970294364
2749 1 16.9415142166 14.991638035 3.29768523374
2240 1 18.4545466741 13.5660900852 1.96269280372
2272 1 21.304537239 13.5702005591 2.1403615353
2783 1 19.9664667583 14.9951973288 0.627814014383
2781 1 19.7951190925 14.9957159652 3.4757689468
2304 1 24.1411956235 13.5750550916 2.31877628737
2815 1 22.8127618563 14.997651269 0.804016383958
2813 1 22.6311707707 14.9927590471 3.64682642997
2847 1 25.6470534617 14.9972331363 0.975573813152
2336 1 26.9720083713 13.5713797307 2.48690730203
2879 1 28.4856283728 14.9925282502 1.14329698338
2368 1 29.8054299346 13.559759438 2.65618565463
2400 1 32.6279765535 13.5449205416 2.83750293633
2911 1 31.319825289 14.9821644008 1.31311932315
2432 1 35.4410211732 13.5440103567 3.03555175253
2434 1 35.6711377881 13.5482116641 0.134026189097
2943 1 34.127580152 14.9695669778 1.49583697607
2975 1 36.8595288654 14.9769442533 1.6803188981
3005 1 38.3580201491 13.7620623593 3.22702038725
2498 1 38.6220515805 13.6965079274 0.321561959926
3039 1 43.692414459 13.6868276861 3.35597787841
3009 2 40.4095162811 14.0042221378 1.7989221131
3040 1 43.3641145145 15.6581812195 0.980920117306
3519 1 40.8012529553 16.118269023 0.435912118854
3549 1 43.0755022904 16.0741151059 3.37723451607
2494 1 40.4944831217 15.9161041767 3.33873739541
3008 1 42.2373782959 13.6077623163 0.0979397565142
7180 2 46.8351970356 12.5249776444 1.58311915867
7689 1 46.1880953189 13.4046179845 3.58019754691
7690 1 47.3450133769 14.8746325926 1.8202688657
7691 1 45.031670024 13.7349154771 1.02873065994
8199 1 45.3439546418 15.5663365517 2.79722007603
3042 1 45.6598501118 16.2731872455 0.418166136643
7722 1 48.8069724627 13.3863229288 3.21698122393
7723 1 50.1749840251 14.8257553373 1.72633822585
7659 1 48.6891315861 13.4249571663 0.372178023997
8232 1 48.95574076 16.2223180024 3.16057216645
8169 1 48.6373740502 16.2774929911 0.412026423259
7754 1 51.6824836652 13.4913545454 3.12618547439
7755 1 52.9861321253 14.922338002 1.60860308838
7786 1 54.4793033334 13.5198263012 2.97713480805
7692 1 51.4962972434 13.4871325731 0.213977791217
7724 1 54.3143480586 13.516959642 0.0864854982226
8202 1 51.4880904735 16.2965260382 0.246612476104
7787 1 55.8012038394 14.951012632 1.45285493128
7818 1 57.2990965498 13.5311142818 2.8093276451
7819 1 58.63574565 14.9600178299 1.28875175243
7850 1 60.1388719628 13.53526905 2.63298729645
7851 1 61.4811116322 14.9631260331 1.11462389048
7881 1 64.5013310476 14.9645863246 3.77730697271
7882 1 62.9892369239 13.5365066374 2.44950181114
7883 1 64.3318514068 14.96336093 0.932807709775
7915 1 65.8429979476 13.5358982109 2.26297606331
7914 1 67.3564298367 14.9638678768 3.59053193263
7916 1 67.1840276473 14.9621022053 0.747706856442
7948 1 68.696337918 13.5346992809 2.07723046162
7947 1 70.2094004074 14.9639027943 3.40672725261
7979 1 73.0605253527 14.9664506525 3.22904883028
7980 1 71.548401973 13.5341135658 1.89515179738
7884 1 70.035037381 14.9606986384 0.563215290581
7917 1 72.882647984 14.9601640971 0.382156444886
8011 1 75.9155894449 14.9768371764 3.06045968349
8012 1 74.3985981287 13.5371911157 1.72037435113
7949 1 75.7252284538 14.9634600842 0.204274893957
8043 1 78.740564085 14.9849012973 2.88745255897
8044 1 77.239801647 13.5423757784 1.54815734586
8076 1 80.0440484727 13.5328550511 1.37340425451
7981 1 78.5519208794 14.9659167128 0.0207988104721
8075 1 81.6170170675 14.9661356492 2.65042237279
8108 1 82.8875633512 13.5463062226 1.20238600101
8107 1 84.400706681 15.0083632119 2.54004203195
8140 1 85.4948488788 13.5094959505 0.854348156471
8648 2 86.6913165251 15.0199815766 1.96752073789
8139 1 87.3875902849 12.5465850669 2.04276711729
8158 2 89.5837793303 13.6742480799 2.11166232876
8160 1 89.2352024552 12.9689122741 0.0766663192905
3099 1 2.56435197585 17.6418388187 2.72451067405
8669 1 1.36855892566 19.1919014891 1.17716144622
2590 1 4.177513095 16.3374679947 1.28029061435
2622 1 7.06451620619 16.3825505914 1.36345182957
3100 1 4.12432971452 19.2345729576 1.36760291346
3131 1 5.5234096316 17.8180654158 2.73224907689
3132 1 7.07436872968 19.2650257221 1.40463786831
3133 1 5.69846859488 17.8095654092 0.0645988256612
2654 1 9.87866756522 16.4248599687 1.45972725437
3163 1 8.39326266085 17.8306215145 2.84975911202
3164 1 9.87723009023 19.2719689944 1.46705095051
2686 1 12.7401055705 16.4217976047 1.62079552093
3195 1 11.2321089842 17.8444640197 2.96856018135
3196 1 12.740382659 19.2731957199 1.62225098809
3197 1 11.387762376 17.8536663226 0.11400644797
3227 1 14.0879848693 17.8460588591 3.12776217933
3229 1 14.2547311523 17.8481533202 0.282382242634
2718 1 15.5988797341 16.4196565275 1.78926716412
3228 1 15.6001468546 19.2739850808 1.79037237984
3261 1 17.1125664013 17.8470553393 0.453037224032
3259 1 16.941538316 17.8466528688 3.29829097272
2750 1 18.4535877244 16.4201126369 1.96327133983
2782 1 21.3077030002 16.421779226 2.14498979756
3260 1 18.4539697168 19.2731800278 1.96344673209
3292 1 21.3048841916 19.2709849777 2.14104863474
3293 1 19.9663266847 17.8464991568 0.627645332819
3291 1 19.7946890074 17.8457811655 3.47592371549
2814 1 24.1427124237 16.4229169379 2.31875775137
3324 1 24.1441223851 19.2670576063 2.32203800071
3325 1 22.81373447 17.8461181528 0.804135458294
3323 1 22.6319766925 17.8521688894 3.64822214671
3357 1 25.6489925687 17.8451904299 0.976895872412
2846 1 26.9690642282 16.4206533994 2.49434504502
3356 1 26.9744251454 19.2678790751 2.4939862308
3389 1 28.4863414948 17.8432765829 1.1459268872
2878 1 29.8073062335 16.4144021183 2.66324695256
2910 1 32.6168115382 16.4057362947 2.8470503539
3388 1 29.802892165 19.2704418439 2.66416373377
3420 1 32.615498256 19.2760299388 2.84783312633
3421 1 31.317248511 17.8436915853 1.31749143092
2942 1 35.384035526 16.3974778956 3.05523944701
2944 1 35.6012663677 16.4248102874 0.157493606041
3452 1 35.3905654102 19.2855386414 3.05348409547
3453 1 34.1131461262 17.8498465747 1.50586055916
3454 1 35.6332495325 19.2819404993 0.14305071791
2974 1 38.0746470564 16.3824867518 3.27695527097
2976 1 38.2752452104 16.477896063 0.419892122818
3485 1 36.8258194039 17.8599089547 1.72941223907
3517 1 39.5598191256 17.7676041387 2.00514473152
3484 1 38.1133080793 19.2361865846 3.27518241566
3486 1 38.3554326431 19.2279448521 0.376509802277
3007 1 42.0446623219 17.5930835171 1.94704894092
4059 1 43.4819343168 19.0824954167 3.66491383377
3516 1 41.0242771392 19.3090731084 3.28871881619
2527 1 40.823495407 19.0141413457 0.491668631372
3550 1 43.1235740523 19.7759599625 1.34451762696
2496 1 44.5235223888 17.6589263858 2.08305923216
8200 1 47.2192062345 17.6384567728 1.97498031001
8709 1 45.6337298587 19.7550036177 2.77940132396
8201 1 45.7033490892 18.8224656834 0.425313828926
8233 1 50.1798647858 17.7418869738 1.73224945666
8742 1 48.6978668545 19.2196783904 3.17163606026
8679 1 48.672946488 19.0394279809 0.457143833182
8264 1 51.632137683 16.334867602 3.1190415663
8265 1 52.9493222159 17.7868203706 1.59887435849
8296 1 54.4559625045 16.3756434243 2.96620031256
8774 1 51.5890411431 19.2231906813 3.09098872915
8806 1 54.4373463053 19.2304014135 2.95427976594
8712 1 51.4450654953 19.2081285894 0.222463242092
8744 1 54.2827190477 19.2230413611 0.0900330221059
8234 1 54.298446072 16.3634673962 0.0927946604937
8297 1 55.7867027304 17.8057153214 1.44771580386
8328 1 57.2907235222 16.3863267699 2.80347296415
8838 1 57.2815376016 19.2403992512 2.79640880995
8329 1 58.6293197557 17.8153087719 1.28508243915
8360 1 60.1355963871 16.3905156128 2.62933526243
8361 1 61.4781080988 17.8188196276 1.11216390956
8870 1 60.1317458639 19.2456583013 2.62476558077
8391 1 64.5009122303 17.8197618189 3.77592329776
8392 1 62.9879520024 16.3917567302 2.44737874522
8393 1 64.3304010926 17.8189214042 0.931707390686
8425 1 65.8425039329 16.3912313222 2.2620140351
8902 1 62.9867093953 19.2473146793 2.44547074629
8935 1 65.8416666745 19.2467235676 2.26199914518
8424 1 67.3557793023 17.8190121508 3.59052088665
8426 1 67.1828345202 17.8179946537 0.747378317319
8458 1 68.6958528082 16.39066837 2.07688967021
8968 1 68.6939816141 19.2464859643 2.07717097567
8457 1 70.2078373598 17.8201361364 3.40705411549
8489 1 73.0570559353 17.8233525263 3.22845426378
8490 1 71.5466611374 16.3912562306 1.89484381421
9000 1 71.5445883535 19.2483411524 1.89444362311
8394 1 70.0336732285 17.8178919065 0.562875510604
8427 1 72.8812550235 17.8180754231 0.380726581255
8521 1 75.9074738571 17.8212212334 3.06086107451
8522 1 74.3943717173 16.3924479791 1.71905280537
9032 1 74.394101422 19.2479397957 1.71701671592
8459 1 75.7204424051 17.8114891424 0.198742346458
8553 1 78.7576304396 17.8045665258 2.89125654051
8554 1 77.2450292886 16.3976361681 1.55370541629
8586 1 80.0777302505 16.3992303073 1.37328115802
9064 1 77.2335078545 19.2246438707 1.54465465453
9096 1 80.0535098226 19.212006151 1.35952534006
8491 1 78.5503822572 17.7999551013 0.00888561357167
8618 1 82.9077777285 16.4052259188 1.17086974961
8585 1 81.6556551063 17.8721544815 2.66105420901
9128 1 82.9523991234 19.2500041279 1.14439782758
8650 1 85.4771571769 16.6026899778 0.972123718556
8617 1 84.4803683896 17.9260296035 2.78616903042
9180 2 85.4616292718 19.2149425503 1.21243421982
8649 2 88.1425087774 19.4977017288 2.22183358064
2559 2 90.32975934 16.4603043136 0.583771003811
8647 1 87.9664767079 17.0558373937 1.41653586162
9179 2 90.9773713172 18.9473815948 2.84610459589
8668 2 88.7706856447 16.5282032887 3.70071728556
3609 1 2.72601670831 20.8294270462 2.50322182047
3578 1 1.47764925186 22.2302554814 0.900454381659
4119 1 2.69345054411 23.6135558298 2.51843992719
9689 1 0.0493840203807 23.6336138603 2.17776142097
9669 1 0.0672530797724 20.962504281 2.19767798008
3641 1 5.53075761693 20.7289907305 2.70673490893
3610 1 4.22443071655 22.2077038931 1.19234987264
3642 1 7.07268131092 22.1554628075 1.34502243285
4151 1 5.55386760199 23.5773899031 2.70627123211
3643 1 5.7113746186 20.702131262 0.0454663798742
3673 1 8.39644515088 20.7137164831 2.84228344981
3674 1 9.88048148963 22.1182024793 1.45200726235
4183 1 8.40121325479 23.5654675588 2.83064204563
3705 1 11.2344652939 20.701007762 2.96628950711
3707 1 11.3882107168 20.6924924832 0.112270274694
3737 1 14.0906422189 20.7013047553 3.12787441751
3739 1 14.2563299439 20.6987798354 0.282643718359
3706 1 12.7434387905 22.1234419248 1.61924452852
4215 1 11.2391066048 23.5507589917 2.962476274
4217 1 11.3987788531 23.5435431551 0.109257270845
4247 1 14.0937318685 23.555457735 3.12778965964
4249 1 14.258927068 23.5506406313 0.281421946879
3771 1 17.1136157505 20.700292231 0.453466726181
3769 1 16.944340832 20.7029580381 3.2996309469
3738 1 15.6031774845 22.1286475829 1.79132406053
4281 1 17.1141017794 23.5528832347 0.451392844573
4279 1 16.9496113427 23.5619223147 3.3028976716
3803 1 19.9657420545 20.699277618 0.626608685361
3801 1 19.7925741393 20.7012138106 3.47399506429
3770 1 18.4549075048 22.1292779514 1.96329903439
3802 1 21.3017110749 22.1282290375 2.13617609307
4313 1 19.9646023783 23.5526313821 0.621889598073
4311 1 19.7937803368 23.5635322415 3.47329117047
3835 1 22.8140232604 20.6994399103 0.800851252497
3833 1 22.6360004793 20.6990550917 3.65231384787
3834 1 24.1434332826 22.128771673 2.31372495884
4345 1 22.8125648394 23.554000322 0.79403872828
4343 1 22.6276853578 23.5634518381 3.64751825262