ITEM: TIMESTEP
20000
ITEM: NUMBER OF ATOMS
10200
ITEM: BOX BOUNDS pp pp pp
0.0 91.5382635842
0.0 28.55
0.0 45.7691317921
ITEM: ATOMS id type x y z
8 2 1.90570665005 2.28825451521 0.99644157631
549 1 2.92942912771 3.6318024919 2.45272775917
39 1 2.84908669455 0.718621947842 2.44807096906
7 1 1.16180717373 2.18304332743 3.57418573273
40 1 4.3808458131 2.14726643773 1.10587920545
72 1 7.10768866608 2.12937289711 1.29540898493
581 1 5.61353874351 3.5797759713 2.63258971001
71 1 5.57803290899 0.6877772459 2.63857266819
104 1 9.92757397482 2.13049371182 1.46627588013
613 1 8.42499814655 3.56892129663 2.81191093058
103 1 8.41492626384 0.696298789686 2.81269593035
136 1 12.7648587958 2.13272290391 1.63073180171
645 1 11.2603802733 3.56459750697 2.97469376351
647 1 11.4368806967 3.56328574869 0.119252329345
677 1 14.1001427971 3.56457301588 3.13944561705
679 1 14.2741080274 3.56486132012 0.287775766244
137 1 11.430589421 0.698701639952 0.121349332601
167 1 14.0986754214 0.704186701821 3.14048906248
169 1 14.2724407401 0.704132114062 0.289528546754
135 1 11.2562553975 0.700988613863 2.97576540009
168 1 15.6070424918 2.13563764684 1.79985884354
711 1 17.1175296273 3.56636711834 0.462071786658
709 1 16.9414757992 3.56525804813 3.31166724273
199 1 16.9406094321 0.707730259981 3.31226145109
201 1 17.1181145719 0.708655435565 0.463015354336
200 1 18.4517445834 2.13686090961 1.97773467361
232 1 21.2943423672 2.13611692827 2.15835615458
743 1 19.9600235787 3.56732029763 0.641598867743
741 1 19.7877857641 3.56091776512 3.49426059018
231 1 19.7862845323 0.707645711272 3.49634983324
233 1 19.9615402791 0.711455920752 0.641099953088
264 1 24.1341273185 2.14032785677 2.33450539884
775 1 22.8003606503 3.57146993912 0.821873046317
773 1 22.6243808361 3.56235117121 3.67063502414
265 1 22.8038155409 0.714099575808 0.820793680454
263 1 22.6254629793 0.704272758913 3.68056478319
297 1 25.6511515637 0.72083341291 0.998306297476
807 1 25.6476625661 3.57698887254 0.999937948524
296 1 26.9876802425 2.15014385618 2.50607352111
839 1 28.5082726057 3.58339857656 1.17167214917
329 1 28.5039386007 0.726306793239 1.16800092737
328 1 29.8425225389 2.15689260587 2.67664865671
360 1 32.6729795215 2.15158558798 2.84762620148
871 1 31.3658889616 3.58172936411 1.33675211612
361 1 31.3493153347 0.723835224626 1.32947482166
392 1 35.4890946044 2.13247249258 3.02328654068
394 1 35.7313538312 2.12773211881 0.135307661726
903 1 34.1973622354 3.55759123035 1.49789230059
393 1 34.1892429056 0.713646449166 1.4885906821
426 1 38.5592532303 2.13097030707 0.242707537637
935 1 37.0220250711 3.5332816918 1.66470363347
967 1 39.8571604693 3.45099925441 1.82274312541
424 1 38.2774925128 2.12709135592 3.21290680641
457 1 39.6872144119 0.772555100262 1.84386763036
425 1 37.019858632 0.703163368394 1.64622100695
456 2 42.3982111721 3.51785330161 2.11739474224
458 1 41.4202286081 2.0131678152 0.477767370489
5081 2 43.7389824323 1.03213830299 0.592666251596
487 1 41.170000695 1.96675781845 3.42524642611
5048 2 42.9439761807 0.112711628898 3.41340120701
999 1 44.6420725614 3.24585158859 2.08743787611
5650 1 47.4099511415 3.54249353319 1.73938280729
5649 1 46.1993502761 2.23469664212 3.45632088266
5651 1 45.9480355125 2.13821850715 0.367407966064
489 1 44.9380494621 0.626765763849 2.37718100068
5140 1 47.2743404304 0.579223225793 1.88774076874
5173 1 50.1361077166 0.597677312008 1.75823580558
5682 1 48.7874745543 2.08404987467 3.22545780836
5619 2 48.6548222203 1.7929026342 0.523969174563
5683 1 50.0201825804 3.55295982364 1.65944517802
5205 1 52.8686635046 0.672088895858 1.55593508116
5714 1 51.5662927034 2.11353898782 3.06633462203
5746 1 54.3921379963 2.10485429179 2.89958054058
5652 1 51.3141264141 2.10387132719 0.179839857011
5715 1 52.8595286315 3.53236745169 1.52879840087
5684 1 54.2062171423 2.10489857184 0.0478491224788
5237 1 55.734826622 0.673804139931 1.39260480246
5778 1 57.2531443635 2.09823249751 2.73453973394
5747 1 55.736045859 3.52483047805 1.3839340481
5269 1 58.5965658027 0.665939470685 1.21934034634
5779 1 58.5967447277 3.52306994315 1.22569931562
5301 1 61.4563572472 0.671789382541 1.05768748021
5810 1 60.1104994939 2.09655676448 2.56616199719
5811 1 61.4547698617 3.5232872644 1.05811268429
5331 1 64.487780953 0.668301493706 3.73041225288
5333 1 64.3206506188 0.673239369553 0.889022440451
5842 1 62.9724448563 2.09835104131 2.39395425331
5841 1 64.4902570574 3.52532221275 3.72429465385
5843 1 64.3209615171 3.52996529426 0.888679054045
5875 1 65.8289189459 2.09582879306 2.21791377679
5364 1 67.3432082747 0.66941122112 3.55192612749
5366 1 67.1783621459 0.674459611091 0.711169283333
5908 1 68.68454045 2.10520423305 2.04161119112
5874 1 67.3317143514 3.5175027661 3.54877341965
5876 1 67.1706988475 3.52710424099 0.708414329571
5397 1 70.1912701408 0.674909603187 3.36890770758
5429 1 73.027640996 0.682091009787 3.18437899924
5940 1 71.5277318841 2.11991167596 1.8663950808
5334 1 70.0293131574 0.678489465454 0.532573709099
5367 1 72.8693761332 0.683486139971 0.35091865404
5907 1 70.1861067303 3.54449177456 3.36833102659
5939 1 73.0220281486 3.55994240411 3.18766426315
5844 1 70.0326693923 3.54530933341 0.543657574474
5877 1 72.8550327137 3.56047657298 0.368273392612
5461 1 75.8338277324 0.692519839189 2.98686659906
5972 1 74.357584305 2.12916063515 1.6771635345
5399 1 75.7266295373 0.685509153813 0.188548067235
5971 1 75.8461369802 3.58258333453 3.00493404717
5909 1 75.7139878393 3.55028004152 0.186670354974
5493 1 78.7136906401 0.732206913688 2.93604639686
6004 1 77.2183737731 2.12687575796 1.54429272417
6036 1 80.0551241427 2.11474116575 1.38297560307
6003 1 78.7460616857 3.54275505317 2.89371699918
5431 1 78.5349746341 0.717763375312 0.00711779067815
5941 1 78.5491922221 3.54230250326 0.0206791316336
6068 1 82.8957642624 2.08672857399 1.12965978843
5525 1 81.5550007869 0.72475520793 2.73673427097
6035 1 81.5550952292 3.53256785693 2.73632300427
6608 1 84.2049531111 3.61128816263 2.44026371114
5590 1 84.5529950261 0.832885103878 2.38758123203
6067 1 86.0922609886 2.59009349359 3.32295891353
5527 1 85.9261347246 1.97045482999 0.671287435612
6120 2 87.7024049779 3.14841201293 1.15972919338
6117 1 87.9167576722 1.20871255817 2.66103984289
5608 1 90.5719050678 0.218638567266 2.78902802302
5609 1 89.8318747343 2.65393384342 1.40818044015
9 2 90.9258450728 0.899780850287 0.547857022746
5587 1 88.6085649291 0.640344505807 0.562082165238
6097 1 90.1023082094 2.38873685379 3.81217577848
518 1 1.40697882953 5.04464520852 0.898579093539
1059 1 2.76523407192 6.52323650108 2.34042242591
1028 1 1.3765620913 7.98116397286 0.520862473769
517 1 1.49100092307 5.02992575617 3.66901384775
7140 1 0.0401463723284 6.91045538325 2.30022558238
550 1 4.33642520791 5.07835003896 1.10489416759
582 1 7.11912039538 5.01657493559 1.30011896866
1060 1 4.28984681401 7.9117613951 1.12225258941
1091 1 5.60551042842 6.46573876149 2.64689235643
1092 1 7.1208394731 7.87802251038 1.30691783064
614 1 9.93603241395 4.99966159088 1.46642959621
1123 1 8.43257395678 6.43818822163 2.81821709572
1124 1 9.94192434625 7.86481173125 1.46765448886
646 1 12.7684720433 4.99596968652 1.62932394359
1155 1 11.2661832349 6.42856592209 2.97579658346
1156 1 12.7710247576 7.86037753844 1.62744668535
1157 1 11.4424756621 6.43010459471 0.116916601715
1187 1 14.1026448145 6.42605474568 3.13824327202
1189 1 14.2756094387 6.42780990627 0.285441549317
678 1 15.6079480861 4.99555889931 1.79838172455
1188 1 15.6082776198 7.85751787434 1.79608682649
1221 1 17.1167828548 6.42616475365 0.459874041182
1219 1 16.9420527622 6.42416275694 3.30997803321
710 1 18.4510042224 4.99405319723 1.97605819376
742 1 21.2912427723 4.99559619834 2.15449998551
1220 1 18.448684738 7.85528177352 1.97168669359
1252 1 21.2908097832 7.85455676709 2.14900644794
1253 1 19.9575860893 6.42692393426 0.63847208735
1251 1 19.7828867259 6.42295990517 3.48731020315
774 1 24.1346434584 4.99795614231 2.33112889591
1284 1 24.1386026756 7.85314004819 2.32545976791
1285 1 22.8007039304 6.42951869342 0.81817751008
1283 1 22.6244898189 6.42350961403 3.66296821112
1317 1 25.6520406209 6.43034426018 0.996643904892
806 1 26.9891009566 4.99982612251 2.50597445483
1316 1 26.9945682645 7.84945917678 2.50093458005
1349 1 28.5140564294 6.42909195441 1.17043671182
838 1 29.8547043701 5.00175606102 2.68159882988
870 1 32.6937501365 4.99520785079 2.84621508182
1348 1 29.8546798371 7.84581375341 2.675020168
1380 1 32.7092905074 7.83906722727 2.85162281109
1381 1 31.3775219385 6.42902962296 1.33980475762
1382 1 32.9099231192 7.86286709229 0.00102157317932
902 1 35.4926978396 4.94738577608 3.03220552602
904 1 35.7307584552 4.97794139881 0.15807581831
1412 1 35.5364275714 7.79767438925 3.02429155012
1413 1 34.2255776786 6.41564443426 1.50530705801
1414 1 35.7792759731 7.86684583832 0.175436331713
1445 1 37.0383273116 6.35367037548 1.66441669084
934 1 38.3065664225 4.8696662522 3.26204057674
1444 2 38.2122977144 7.57510782024 3.34283359855
1477 1 39.6053297053 6.28661766402 1.83857593547
936 1 38.5683710003 4.91108801781 0.310497103905
1446 1 38.5873339676 7.81936690222 0.179875760361
1510 1 43.7015767328 5.48316206819 2.64275566473
966 1 40.9747883273 4.81327837375 3.4325551384
1509 1 43.3100977424 7.56696218059 0.802648949754
1511 2 41.6077501124 6.7715956481 2.55987095332
968 1 41.4934582588 5.16374849339 0.604389214963
1987 1 41.0016341158 8.0167031497 0.663479456516
6161 2 44.284535784 7.89824676215 2.78944586934
1000 1 45.6968677313 5.09756006645 0.869192748904
6159 1 46.2591356913 5.04142596529 3.27619394941
6160 1 47.4612173299 6.56239498015 1.88481022434
6669 1 46.3469117809 8.00296193675 3.41365715075
6671 1 45.8124762372 8.06010381025 0.78764224121
6192 1 48.8193773696 4.98277074239 3.21755377436
6193 1 50.1044021405 6.46892310893 1.7102251338
6129 1 48.5613379954 5.24981241098 0.322637466416
6702 1 48.890524772 7.94005969985 3.25331288835
6639 1 48.5338012338 8.03076906198 0.344119764988
6224 1 51.5674947951 4.95754105289 3.04601140775
6225 1 52.8863721745 6.38699243361 1.52330355027
6256 1 54.3998872692 4.95312357228 2.88845858507
6162 1 51.3074626637 4.97001269749 0.16072159179
6734 1 51.6366340246 7.82773475131 3.05368422389
6766 1 54.4038964402 7.82407134138 2.89209347971
6672 1 51.3873708917 7.88380123795 0.193479262165
6194 1 54.2091794366 4.95790483327 0.0343655202847
6704 1 54.2210299696 7.83618729857 0.040888635885
6257 1 55.7346382111 6.38846063168 1.38493614127
6288 1 57.2524137547 4.95579814776 2.73162655026
6798 1 57.2544147142 7.81649843997 2.73260178786
6289 1 58.5978472454 6.38627974214 1.2288986069
6320 1 60.1123317892 4.95417148764 2.56517171824
6321 1 61.4604661485 6.38497824911 1.0618357389
6830 1 60.1158578361 7.81364187067 2.56610691237
6351 1 64.4929807634 6.38461401595 3.72176312426
6352 1 62.9738967637 4.95414392674 2.39197190841
6353 1 64.3239127671 6.38932655171 0.891615691518
6385 1 65.8354237045 4.95910145337 2.21884574069
6862 1 62.9772986439 7.81425125023 2.39378663259
6895 1 65.8439773261 7.81918618639 2.22511361272
6384 1 67.3501377435 6.38960744043 3.54554802255
6386 1 67.1827662802 6.40083337391 0.722778870519
6418 1 68.6552762695 4.9388687112 2.02284483051
6928 1 68.6962960341 7.8273730334 2.06122454693
6417 2 70.0365346529 6.24930023059 3.37899315313
6449 2 73.1593404787 6.40441587653 3.18104470231
6450 1 71.5298454588 4.98496903121 1.88275473222
6354 1 70.026016075 6.39858026427 0.5765839611
6387 1 72.8511722831 6.41373180729 0.397185749515
6960 1 71.5023023604 7.79975157285 1.93155663659
6481 1 75.8907729585 6.39578715675 3.03877046332
6482 1 74.373510754 4.97506625515 1.67070728615
6419 1 75.716957071 6.40030200522 0.194809124271
6992 1 74.3843133454 7.8389129328 1.69502983768
6513 1 78.7289204122 6.39114920468 2.88478940959
6514 1 77.2288177637 4.97307111319 1.5353372597
6546 1 80.0308099769 4.95139626983 1.36259615654
7024 1 77.2291157883 7.82117542159 1.53679064811
7056 1 80.0314118369 7.84287509474 1.35482001348
6451 1 78.5512035922 6.3959924738 0.017841873967
6545 2 81.4155209312 6.39731547697 2.70897618774
6578 1 82.8542382232 5.02831681694 1.22551730643
7088 1 82.8072370758 7.80490603424 1.22220353316
6577 1 84.7069145642 6.65703847941 2.37441465367
6609 1 85.9532707654 4.64559733369 1.47111829542
6100 1 87.4155139834 6.7373424496 2.56793218095
6547 2 86.3232920938 6.66213961342 0.579358797616
6610 1 88.3185130464 4.41861714925 3.11138464469
6630 1 89.4928985344 6.84424675184 3.73141675277
6119 2 89.4629428841 6.2256748111 1.43436701692
6579 1 90.8678672767 4.51858640112 2.72002381632
1569 1 2.70635577732 9.28976339742 2.46105502052
1539 1 1.60341312595 10.7120743287 0.759706259724
2079 1 2.90942796467 12.1303783474 2.44768861829
1538 2 0.231901627035 9.4732137635 2.05043447159
1537 1 1.03394255369 11.2040868422 3.56116330477
1570 1 4.30826349479 10.6801710157 1.11262324188
1601 1 5.58149319887 9.29478480038 2.66940432423
1602 1 7.11242115772 10.7147609995 1.3107093309
2111 1 5.58016906622 12.1200253053 2.6759163346
1633 1 8.43232695933 9.29190452404 2.82445127992
1634 1 9.93934043616 10.723026497 1.46920341269
2143 1 8.42699847405 12.1348986248 2.83430255405
1665 1 11.2696784318 9.28990917324 2.97687133243
1666 1 12.7676188297 10.7256259163 1.6238035862
1667 1 11.4419621022 9.29662828867 0.113894146369
1697 1 14.1035928092 9.28911008986 3.13601838613
1699 1 14.2747913816 9.29279190771 0.283005068578
2175 1 11.2688411935 12.1457147572 2.98159250656
2177 1 11.428596619 12.165708654 0.108497616804
2207 1 14.1006368932 12.1515699187 3.13350831771
2209 1 14.2694602207 12.1582227662 0.281138677285
1698 1 15.607197235 10.7211946971 1.79343249495
1731 1 17.1158865471 9.28835811904 0.457022792413
2241 1 17.117539361 12.1500360559 0.456186353065
1729 1 16.9413502179 9.28594541354 3.30692976329
2239 1 16.9431535957 12.1463823644 3.30507183597
1730 1 18.4498516958 10.71541964 1.96848925161
1762 1 21.2947543043 10.7095697397 2.14488071541
1763 1 19.9585784133 9.28558081915 0.634267824538
2273 1 19.9643709481 12.1416469077 0.632017471392
1761 1 19.7820087981 9.28236183262 3.48254186414
2271 1 19.7861438804 12.1381384751 3.48074555018
1794 1 24.1425020259 10.7043582111 2.32000723304
1795 1 22.8053952039 9.28252544506 0.811564687374
2305 1 22.8108658975 12.1339341956 0.807159962033
1793 1 22.6267334092 9.27853172536 3.65780609114
2303 1 22.6312152727 12.1310364008 3.65642973024
2337 1 25.6589880055 12.1293321155 0.981603477734
1827 1 25.6575343078 9.27963279138 0.988699347668
1826 1 26.9944365382 10.7010543293 2.49388381451
1859 1 28.5157119055 9.27656746064 1.1623373293
2369 1 28.5102790469 12.1278946494 1.15304273658
1858 1 29.8478298995 10.6979294294 2.665026873
1890 1 32.6992795264 10.6948758935 2.83450007677
1891 1 31.3788004627 9.27591669579 1.33250952783
2401 1 31.3620285621 12.1300675987 1.31892345419
1922 1 35.5194853503 10.6946024481 2.98958620761
1923 1 34.2548857457 9.27696665433 1.50590814545
1924 1 35.7735422567 10.7254947459 0.219778157826
2433 1 34.1805862994 12.1433854285 1.46716650903
1955 1 37.1568811934 9.15748733722 1.68494369655
1954 2 38.0436548316 10.6366982141 3.49264477097
1956 1 39.4877200443 10.1554411164 0.362344354751
2464 1 40.0974753806 11.8358664375 3.77571459602
1988 2 40.8144102065 9.86308325235 2.33002814151
2019 1 42.4344123831 10.2756075406 0.472855283168
2017 1 41.1236940189 11.9068427483 1.51702046401
2497 1 42.5085215692 11.0103915003 3.56416545059
2020 1 44.4854080737 9.95354429029 2.07622738891
7179 2 46.1016426577 10.6553452233 3.75068948798
7181 1 45.7526465728 10.9320560088 0.343599948477
6670 1 47.3877079235 9.62125401835 1.85729122381
7180 2 47.3777992916 12.2344537737 1.23651368457
6703 1 50.0919593423 9.35666948245 1.67445309281
7212 2 49.1425764772 10.5663852084 3.47040886606
7213 1 49.9621865722 12.1698820192 1.68910832467
6735 1 52.8928885122 9.29126755403 1.53899852372
7244 1 51.6182356668 10.7328752338 3.06123975645
7276 1 54.4157166019 10.6937122955 2.89788155896
7182 1 51.3460604106 10.7557180093 0.174562224513
7245 1 52.8827218218 12.1395965982 1.53577679341
7214 1 54.2270823089 10.7040455597 0.0377000206958
6767 1 55.7408418288 9.25706791745 1.38847849201
7308 1 57.2616404836 10.6769441824 2.73501292404
7277 1 55.7478634495 12.1162772734 1.38775304355
7309 1 58.6060202727 12.1063387582 1.23048702125
6799 1 58.6016879106 9.24743777348 1.230336042
6831 1 61.4640612553 9.24508552751 1.06328249588
7340 1 60.1193129071 10.6731000834 2.56767855422
7341 1 61.4661683943 12.1033763606 1.06328683241
6861 1 64.4947811215 9.24471243491 3.72246103883
6863 1 64.3264637246 9.24465065574 0.892266265329
7372 1 62.9794206376 10.6735830338 2.39436143375
7405 1 65.8410961764 10.6741188091 2.21975892016
7371 1 64.4955075099 12.1023885566 3.72461508693
7373 1 64.3263087478 12.1025123781 0.889400137377
6894 1 67.3584382178 9.2491369284 3.54456177466
6896 1 67.1926235035 9.23986168873 0.727641286845
7438 1 68.6742192803 10.6927703885 2.0304455927
7404 1 67.3478641226 12.1081845557 3.54681963891
7406 1 67.1813130028 12.1060777501 0.711731232579
6927 2 70.1814149852 9.38895922952 3.36842230902
6959 1 73.0269572778 9.24707535398 3.19462839511
7470 1 71.5477001747 10.6845352636 1.861879127
6864 1 70.0381172975 9.23617478587 0.574929075037
6897 1 72.853133441 9.22811845962 0.397149774019
7437 1 70.1953377845 12.1105671039 3.36960351471
7469 1 73.0443385781 12.1051911198 3.1981393691
7374 1 70.035106945 12.1070157946 0.540023949552
7407 1 72.8828293343 12.1040975653 0.368720204131
6991 1 75.895254788 9.24689665865 3.03915698546
7502 1 74.3834884443 10.6715648867 1.70550065997
6929 1 75.7188643823 9.24440375362 0.196966826152
7501 1 75.9056080872 12.1059393039 3.04459891148
7439 1 75.7288932179 12.0992658645 0.195566426777
7023 1 78.7380348163 9.25016639361 2.88659957465
7534 1 77.2348550487 10.6755254636 1.53843223587
7566 1 80.0729662986 10.6737386518 1.37886108012
7533 1 78.7513435869 12.1026859698 2.89400166788
6961 1 78.5567337764 9.25004284688 0.0178216532293
7471 1 78.5697504574 12.0878494866 0.0223612447839
7055 1 81.561697172 9.24567898161 2.7333712788
7598 1 82.8797855741 10.682671689 1.220548868
7565 1 81.6038716754 12.1008003572 2.74160194442
7087 1 84.3153495755 9.21087752903 2.52713148228
7597 1 84.4970083686 12.0239753283 2.57086832075
7120 1 86.5656877937 8.8185048092 1.82112050531
7630 2 85.6190736125 10.679995448 0.906577790143
8139 1 87.4716840285 11.6681621875 2.30756343832
7119 1 88.2475045918 9.48176048767 3.40158885228
7568 1 88.2072607742 10.0741695626 0.518683464592
7137 1 89.4906299722 8.44894439755 1.65643233015
7139 1 89.9022564736 11.0364532316 2.53925444949
7090 1 90.7652957945 9.95234792837 0.128883237307
2589 1 1.370910193 13.3234831266 0.985743051914
2557 1 2.80755655206 14.9230277977 2.39991989492
2080 1 4.30410629063 13.5426021141 1.12476520613
2112 1 7.09831247453 13.5495802854 1.3430593037
2621 1 5.56219595423 14.9729703883 2.68628739159
2144 1 9.93599256193 13.5723202745 1.48555633812
2653 1 8.40928508103 14.9926532171 2.83825579163
2655 1 8.62515659953 14.9913583601 0.018131638794
2176 1 12.7556535307 13.5901618589 1.61961428585
2685 1 11.2583281488 15.0034038235 2.98579806108
2687 1 11.3954394647 15.0382369626 0.100147225327
2717 1 14.0978011236 15.0060244282 3.13521302136
2719 1 14.2612563852 15.0177113519 0.279233080595
2208 1 15.6057473226 13.5812879348 1.79207883082
2751 1 17.1210804589 15.0060906641 0.458326786043
2749 1 16.9472645728 15.0007649042 3.30696994239
2240 1 18.4568132215 13.5739459063 1.96954675215
2272 1 21.301417331 13.5636636973 2.14535630419
2783 1 19.9751565753 15.0017832063 0.639178049067
2781 1 19.7992872663 14.9967328686 3.48592755218
2304 1 24.1437113689 13.5561797442 2.31999547166
2815 1 22.8168921772 14.9928085629 0.815236186497
2813 1 22.6241820917 14.9720303164 3.64541432108
2847 1 25.6523267157 14.9886994894 0.987695274831
2336 1 26.9879006434 13.5552408046 2.49065396563
2879 1 28.4957531611 14.9899247719 1.15451884563
2368 1 29.8316317304 13.5576515056 2.65946326566
2400 1 32.6669522965 13.5622994845 2.83107484009
2911 1 31.3448494188 14.9888663544 1.3119818592
2432 1 35.3441464463 13.6465837299 2.99951050938
2434 1 35.7204937491 13.6540759147 0.132423004814
2943 1 34.1132680235 15.0310146774 1.45689062672
2944 1 35.8071713245 16.2915970714 0.191235316458
2465 2 36.7192323651 12.4583985492 1.6891766013
2975 1 37.5240510012 14.7961112974 1.7451165219
2498 1 38.783840976 12.650905647 0.202321610528
3009 1 40.1706579745 13.9258491825 1.813245665
2530 1 43.8195913143 12.2754466806 1.83374742813
3040 1 42.5302547996 15.6507535709 0.854225901944
3008 1 42.502218751 13.3722069899 0.246984889213
3549 1 43.2369953017 16.1549590096 3.60960280397
3037 1 42.5527073033 13.6132237903 3.26637150199
2494 2 41.2743072503 15.441631148 2.94295955153
3039 1 44.5230095318 14.7111515884 1.97408025837
7689 1 46.1373917658 13.2615812005 3.216131022
7690 1 47.2899682337 14.7944201346 1.76504733819
7691 1 45.5490592348 13.4763711171 0.269355698728
8199 1 46.0787240543 16.2285088226 3.25434860552
3042 1 45.536486857 16.2854185758 0.415646784973
7722 2 48.9493439245 13.7229055451 3.48758595945
7723 1 50.0743605888 14.939863728 1.70565069323
8169 1 48.5775724715 16.2796623834 0.374443190048
7754 1 51.5886761126 13.547499195 3.06770200646
7755 1 52.8921239158 14.9676935425 1.53628902965
7786 1 54.419652581 13.5424525354 2.89789213537
7692 1 51.3342137446 13.5464811443 0.179897741153
7724 1 54.2294767135 13.5514524994 0.0346553016347
7787 1 55.7505335825 14.9691536131 1.38821934444
7818 1 57.2660647311 13.5342853923 2.73668932205
7819 1 58.6084604951 14.9635568447 1.23191245253
7850 1 60.1212945865 13.5309890509 2.56966795138
7851 1 61.466774991 14.9607470946 1.06443793755
7881 1 64.4929667943 14.9601143678 3.72768890114
7882 1 62.979752787 13.5311889411 2.39571622489
7883 1 64.3239799744 14.9610042134 0.889042206736
7915 1 65.8358460307 13.5339621701 2.21808988439
7914 1 67.346865033 14.9623823118 3.54957742518
7916 1 67.1803538801 14.9624343394 0.710823819543
7948 1 68.6910108947 13.5361986292 2.04140320802
7947 1 70.2013010251 14.9651533029 3.37238460958
7979 1 73.0608257581 14.9650553768 3.20198965647
7980 1 71.5447459891 13.5370807223 1.86891259191
7884 1 70.0377195383 14.9643921316 0.534601333029
7917 1 72.896701823 14.9636439785 0.363594026122
8011 1 75.9287664482 14.9682689867 3.05251463035
8012 1 74.4043508706 13.5366968709 1.70350843118
7949 1 75.750542133 14.9578352333 0.192738331136
8043 1 78.7656446096 14.9618397382 2.90386602208
8044 1 77.2519229937 13.5290132141 1.54099422937
8076 1 80.0889946926 13.5086773758 1.38633979734
7981 1 78.5879736352 14.9337945884 0.0171106711851
8075 1 81.6485346215 14.9214631809 2.73840167465
8108 1 82.9565347664 13.4738034425 1.22479931993
8618 1 82.9236929374 16.3139595786 1.21848579044
8107 1 84.5162369611 14.9402415116 2.57351859633
8140 1 85.692097009 13.4773040075 1.06529828351
8648 2 87.9796133529 13.7247883192 0.889904639675
7567 1 89.8786242356 12.6134610774 0.517508475789
7648 2 91.0896410414 13.1193897615 2.5192026743
2559 2 90.8164053035 16.2329773526 1.14399296703
9158 2 88.3826281905 16.1754951034 3.42626332793
2591 1 1.49442098935 16.3499424571 1.02893567086
3099 1 2.7353313073 17.7750526033 2.5347373775
8669 1 1.5771999206 19.2623926131 0.964833363767
2590 1 4.26267048458 16.422737489 1.1581377885
2622 1 7.05183479692 16.4164065802 1.36261508722
3100 1 4.21109378923 19.2626465711 1.17801013625
3131 1 5.53704976647 17.8414248315 2.7005610318
3132 1 7.02324522355 19.3062047409 1.36373712747
2654 1 9.915462373 16.4367264762 1.49930143581
3163 1 8.38368114177 17.8541125088 2.8471030105
3164 1 9.90255505322 19.2835446188 1.49815098903
3165 1 8.53892274207 17.8704691762 0.112840797256
2686 1 12.7471597082 16.4387266133 1.62363295765
3195 1 11.2491558449 17.8548156778 2.99139835017
3196 1 12.7446326768 19.2734549915 1.62570584387
3197 1 11.3752585074 17.8631320389 0.103907535542
3227 1 14.0968458396 17.8525745786 3.13908331121
3229 1 14.2603285443 17.85721078 0.282867965702
2718 1 15.6069811725 16.4311037581 1.79552888048
3228 1 15.6082474486 19.2750339306 1.79807348022
3261 1 17.1243779044 17.8532819141 0.461095299472
3259 1 16.9505950333 17.8504917435 3.31079968694
2750 1 18.4639163782 16.4270839102 1.97540122532
2782 1 21.3216322256 16.4281890985 2.16538823762
3260 1 18.4668563852 19.2727927063 1.9782150175
3292 1 21.3224641392 19.263208213 2.16783749119
3293 1 19.9798428393 17.8492750786 0.642118544627
3291 1 19.8111690964 17.8462327154 3.49569915435
2814 1 24.1417936628 16.4150953404 2.34036783138
3324 1 24.1395814318 19.2688298987 2.34367833396
3325 1 22.8244568131 17.8452121621 0.826393269356
3323 1 22.6598491451 17.8419968564 3.68561962909
3357 1 25.6411869756 17.8421285336 0.998013502421
2846 1 26.9626601393 16.421258839 2.50705729726
3356 1 26.9581227879 19.25800288 2.51049865802
3389 1 28.4880828199 17.8406821928 1.15629297089
2878 1 29.8181449868 16.4161561414 2.6613068714
2910 1 32.6504538002 16.4277011096 2.83258103605
3388 1 29.8169966397 19.2611892255 2.66360218354
3420 1 32.6754626218 19.2487066718 2.82612925165
3421 1 31.3428833326 17.8402552523 1.31333269818
2942 1 35.5231300215 16.3449501424 2.95360545585
3452 1 35.4723755985 19.2670945404 2.98671029724
3453 1 34.223169569 17.8070359656 1.47403345918
3454 1 35.7495702974 19.2281170148 0.156842254
2976 2 38.4305553866 16.3814546418 0.0655457845793
2974 2 37.8966505084 16.5220638844 3.4346597695
3485 1 37.075836521 17.7905831605 1.63781725262
3517 2 39.919016749 18.077037915 2.03251929834
3484 1 38.171816128 19.2659446933 3.21320603959
3486 1 38.6701400625 19.1752429843 0.252024236007
3007 1 42.0960935521 17.7244603283 2.05764888239
4059 1 43.4157712524 19.034133242 3.71387176868
3516 1 41.1631909556 19.6860048397 3.24454677328
2527 1 41.1217954678 19.4967860183 0.591954843879
3550 1 43.4528587638 19.6948360362 1.4631173022
2496 1 44.4473866809 17.495686907 2.02639136388
8200 1 47.3046430635 17.7349523343 1.88458826148
8709 1 45.7459333107 19.3774548226 3.00631840568
8201 1 45.7533046775 19.0423616205 0.601635206526
8232 1 48.7680838862 16.3554776171 3.26667596571
8233 1 50.0776392191 17.778490603 1.73320945422
8742 1 48.766641756 19.1734461285 3.29131777692
8679 1 48.6144394441 19.1886510415 0.39747431144
8202 1 51.3623198106 16.403520483 0.185048498671
8264 1 51.614213573 16.3986090899 3.06526133015
8265 1 52.8990156799 17.8288763598 1.53888768209
8296 1 54.4208605158 16.3932320785 2.89768555586
8774 1 51.5945407542 19.2202075422 3.09101352126
8806 1 54.4213356541 19.2459160894 2.90705675611
8712 1 51.3373998797 19.2494530999 0.181010409494
8744 1 54.2265063229 19.2571327786 0.0428429934425
8234 1 54.2299846555 16.4038183383 0.0391657347055
8297 1 55.7511249208 17.824688653 1.39188176492
8328 1 57.2677587746 16.3913027397 2.73857246381
8838 1 57.2681637723 19.2481818573 2.74328718348
8329 1 58.6094203057 17.8208445877 1.23467610087
8360 1 60.12162233 16.3882790139 2.57248212953
8361 1 61.4659459943 17.8181982477 1.06635520765
8870 1 60.1218544742 19.2470860121 2.57498310453
8391 1 64.4899865884 17.8159058907 3.73121447316
8392 1 62.9780042295 16.3883851974 2.3982483453
8393 1 64.3220373495 17.8172328811 0.890573482849
8425 1 65.8341383978 16.3893131324 2.21997890551
8902 1 62.9756905455 19.2454878328 2.40040659891
8935 1 65.831548239 19.2434930974 2.2224850621
8424 1 67.3447464545 17.8150036234 3.55229368892
8426 1 67.1784571679 17.8161466013 0.711491069407
8458 1 68.6904840881 16.389950206 2.04140224137
8968 1 68.6892463098 19.2392896284 2.04263908141
8457 1 70.2025234199 17.8124013617 3.37346356894
8489 1 73.0707026553 17.8120107038 3.20195775978
8490 1 71.5526663293 16.3906997827 1.86690149513
9000 1 71.5532466778 19.2346474446 1.86551206732
8394 1 70.0385295986 17.8146604908 0.533607140319
8427 1 72.9059353378 17.8149991709 0.361905216819
8521 1 75.9515542877 17.8064727397 3.05273442316
8522 1 74.4204995966 16.3899120146 1.70185287302
9032 1 74.4323047836 19.2347683164 1.70145757028
8459 1 75.7691357597 17.8118572661 0.19162663545
8553 1 78.8019673124 17.7989616371 2.88865979735
8554 1 77.2777681331 16.3828281197 1.53887463545
8586 1 80.1136247071 16.337993683 1.37372391198
9064 1 77.2969451754 19.2319002453 1.53685989279
9096 1 80.1462472437 19.2180781506 1.36857952566
8491 1 78.6169287638 17.7964678184 0.0143856547129
8585 1 81.6383254153 17.7433213728 2.7364454636
9128 1 82.8141946438 19.0747523543 1.2215414507
8670 1 85.4960666665 16.4239905535 0.971791979358
8650 1 86.1472860044 16.4504542147 3.73054556512
8617 1 84.5263581967 17.8657402828 2.674163952
9180 1 86.5554507209 18.6641136671 1.52968664088
8647 2 87.7564029403 16.7879144175 0.339405582553
8649 1 88.2843628862 18.5151572181 3.16888295226
9179 2 90.6594801763 18.7832789214 3.15435159497
3609 1 2.66456016031 20.7087389802 2.55090703128
3578 1 1.42190534405 22.1643225191 0.962736176802
4119 1 2.66718019285 23.5224815956 2.58026886653
3641 1 5.51008740713 20.6989125595 2.70650590773
3610 1 4.20346540823 22.1297401889 1.20327228649
3642 1 7.03588154836 22.1467731074 1.3573038519
4151 1 5.50924614024 23.5605554162 2.69795855216
3673 1 8.38298413786 20.7055720213 2.84369981339
3674 1 9.90903851402 22.1285991168 1.49016508782
4183 1 8.39028774133 23.5487965791 2.8404845569
3675 1 8.58526562778 20.7298622928 0.019055019169
3705 1 11.2474580414 20.6985281206 2.98911169535
3707 1 11.3845689996 20.6789180037 0.103436919909
3737 1 14.0962578909 20.6953932656 3.13969398586
3739 1 14.2610049316 20.6926485328 0.283969540135
3706 1 12.748092429 22.111994193 1.62546564057
4215 1 11.2516388582 23.5445017011 2.98632775246
4217 1 11.4105728559 23.5347662992 0.116868270299
4247 1 14.0969523517 23.5412693753 3.13999577714
4249 1 14.267353561 23.5418122048 0.288917628698
3771 1 17.1260158481 20.6986501474 0.463202872931
3769 1 16.9514159582 20.6982791824 3.31237580475
3738 1 15.6079224157 22.118949725 1.7986104073
4281 1 17.1236867572 23.5482940785 0.463777346849
4279 1 16.947585434 23.5470963045 3.3128757317
3803 1 19.9802433981 20.697090653 0.643185813978
3801 1 19.8043243395 20.6977726444 3.4921301842