ITEM: TIMESTEP
28000
ITEM: NUMBER OF ATOMS
10200
ITEM: BOX BOUNDS pp pp pp
0.0 91.5382635842
0.0 28.55
0.0 45.7691317921
ITEM: ATOMS id type x y z
8 2 1.60232021061 2.31263372136 1.11996230101
549 1 2.8178710661 3.55746449509 2.58729428563
39 1 2.73667083522 0.648013575191 2.43579886379
7 1 1.15037143104 2.05429359993 3.66641810106
40 1 4.28048991979 2.16532667 1.18577187022
72 1 7.07400380847 2.18878734879 1.34843108148
581 1 5.54867428403 3.6152696571 2.68815929479
71 1 5.58892769047 0.713355538186 2.67726612124
104 1 9.89822805502 2.15260724029 1.48510900776
613 1 8.38652079222 3.61603777966 2.82774852549
103 1 8.41247184213 0.722871110537 2.8378857375
136 1 12.7538584538 2.13237556223 1.63920235879
645 1 11.2484104386 3.5700762673 2.98169448008
647 1 11.4082032206 3.56421754896 0.137083838948
677 1 14.1072824836 3.55884041112 3.14587735797
679 1 14.2653639554 3.55890505931 0.303491117047
137 1 11.4045016905 0.704803125702 0.13403554328
167 1 14.0963924776 0.695581421158 3.14067887996
169 1 14.2557278893 0.694398918571 0.295486400465
135 1 11.2493510398 0.709543249928 2.98312416552
168 1 15.6028802475 2.12182009392 1.80232105747
711 1 17.1129108932 3.5535063409 0.472850472991
709 1 16.9349881345 3.53565148467 3.29631497323
199 1 16.9426404847 0.688787839672 3.30573839127
201 1 17.1070086209 0.68902232442 0.46280677078
200 1 18.4480472706 2.11772269078 1.9714035106
232 1 21.2941536441 2.11947661376 2.13894937626
743 1 19.9522629932 3.55328309252 0.643212430833
741 1 19.7978079496 3.53527572104 3.46562578021
231 1 19.7859333046 0.687587845727 3.47225054417
233 1 19.9560086056 0.688270956608 0.633110770148
264 1 24.1492207105 2.12134691946 2.30285609641
775 1 22.8007418604 3.55518614776 0.811153500655
773 1 22.6277229744 3.55228807164 3.64435191316
265 1 22.8072722424 0.69046445561 0.802676285218
263 1 22.6364663139 0.689486961838 3.63690454566
295 1 25.4899778923 0.692020071063 3.80289692689
805 1 25.4892172807 3.54456696765 3.80740168271
297 1 25.670479969 0.691909178236 0.96237745873
807 1 25.6701489512 3.54566856016 0.966397417949
296 1 27.0113464632 2.11676713844 2.46523791621
839 1 28.5365356538 3.53352812545 1.12211297842
329 1 28.5351942424 0.69164203566 1.11918820679
328 1 29.8679934642 2.11333483547 2.63196486208
360 1 32.7212312387 2.11318949186 2.79883947952
871 1 31.3915340797 3.53073998711 1.28800604389
361 1 31.3981071337 0.691838666507 1.28558173743
392 1 35.5719385673 2.13039158102 3.01022251577
394 1 35.8273438605 2.12960703419 0.156510531611
903 1 34.2589272349 3.54013914186 1.47010750097
393 1 34.2776431243 0.705153923974 1.47459732386
426 1 38.734988442 2.11916395035 0.302892210572
935 2 37.1258922691 3.54397954809 1.63857317322
967 1 39.8649722541 3.60101079899 1.83109153161
424 1 38.3847043883 2.13801647322 3.20314703379
457 1 39.9435408442 0.68326960824 1.80840468562
425 1 37.1361303016 0.712153607256 1.65269732086
456 2 42.3201547561 3.47291674622 2.24479501185
458 1 41.64920163 2.19385112092 0.390114673362
5081 1 42.5532846393 0.908016371986 2.13301251018
487 1 40.9457471981 2.14559699246 3.46948925132
999 1 44.466350029 3.07519107125 1.96206937037
5650 1 47.226927575 3.50153553576 1.70815112235
5649 1 46.1009494972 2.10390015693 3.37296233633
5651 1 45.6613502131 2.01788580231 0.327565711757
489 1 44.807198382 0.564496810057 2.1151776378
5140 1 47.3286329245 0.728078896799 1.80520539823
5173 1 50.0895705486 0.727364896131 1.66945246445
5682 1 48.7820852325 2.16089553103 3.16911330884
5619 1 48.5616525518 2.12766234351 0.254228409464
5683 1 50.0527532583 3.57926947921 1.63733072492
5652 1 51.4230737267 2.14902387758 0.173615521435
5205 1 52.9236401221 0.712477690633 1.53993750658
5714 1 51.5828721769 2.15023645297 3.03244208315
5746 1 54.4274421946 2.14055847674 2.87974765795
5715 1 52.9141085575 3.57758035576 1.52523934767
5684 1 54.2653527 2.13600286108 0.0320882313336
5237 1 55.7733813054 0.701071736802 1.36540348298
5778 1 57.269397735 2.13641116437 2.71852387921
5747 1 55.763315573 3.57102357899 1.37283479895
5269 1 58.6022619836 0.698900681959 1.19433604383
5779 1 58.603467934 3.56916464415 1.21644194604
5301 1 61.4514175335 0.710264917455 1.03954060901
5810 1 60.1123413051 2.13699533665 2.5518373016
5811 1 61.4507769269 3.569724254 1.04966884297
5331 1 64.4880600839 0.72088654253 3.71443001557
5333 1 64.3116334806 0.717806796207 0.877248234018
5842 1 62.9697563968 2.14542367772 2.38241759119
5841 1 64.4910802253 3.57956000039 3.71570792862
5843 1 64.3165172445 3.58285864539 0.883036092302
5875 1 65.832483264 2.15586550516 2.20911312123
5364 1 67.3454098087 0.727079826387 3.53679230185
5366 1 67.1713994326 0.725271108199 0.706427156024
5908 1 68.689757519 2.17100185647 2.03175352711
5874 1 67.3588581901 3.59874433894 3.53071336428
5876 1 67.1859762543 3.59764812108 0.713029071356
5397 1 70.1890360925 0.728953933073 3.35904496877
5429 1 73.0240945456 0.737787807981 3.17344782176
5940 1 71.5150116449 2.17766485393 1.85195396124
5334 1 70.018562637 0.727194226299 0.527473144083
5367 1 72.865715383 0.733931494443 0.351703311827
5907 1 70.1893113387 3.61151720946 3.35802595214
5939 1 73.0106526665 3.61920656882 3.16583115583
5844 1 70.0200706985 3.60864584511 0.528215674174
5877 1 72.8548537891 3.61121255749 0.360689422592
5461 1 75.8540509101 0.744321285131 2.98549785556
5972 1 74.3686652662 2.17839500263 1.67122286451
5399 1 75.7439998513 0.725083788118 0.198421513581
5971 1 75.8693584908 3.63502300314 2.98962248456
5909 1 75.7408688238 3.59496336658 0.189726230597
5493 1 78.7547192445 0.743756053653 2.94399493147
6004 1 77.2576120526 2.16377553837 1.5440385923
6036 1 80.0972788761 2.14685517681 1.40724690784
6003 1 78.7912214442 3.59839189776 2.88792172544
5431 1 78.596105487 0.711665407972 0.0523505307025
5941 1 78.5961001939 3.57736932831 0.0218307274963
6068 1 82.9138621337 2.14240072264 1.19399968471
5525 1 81.5772971824 0.717128122166 2.79145272894
6035 1 81.619045198 3.58190588562 2.74322460711
6608 1 84.5001182293 3.57710474026 2.41568890379
5590 1 84.4639457066 0.71740298724 2.52269013326
5527 1 85.722558392 2.08145439143 1.00577642961
6117 2 87.1243911694 0.647551474893 2.29313669391
6067 1 86.1062142078 2.26952184409 3.69961510079
6120 2 87.695562876 2.64903472476 0.072261739705
5609 1 89.7188350679 1.69987212038 0.204599959671
6097 2 90.3952284976 1.52163617382 2.72657100188
6610 1 88.4710607574 2.68361720566 2.38891565835
6579 1 91.0248909785 3.57119184691 1.72926806273
518 1 1.54311209 4.85945296118 1.09022683931
1059 1 2.57014415262 6.42511845938 2.55107364533
1028 1 1.16670085805 7.76169169845 1.02960729587
550 1 4.24359212359 5.05620097231 1.18383810362
582 1 7.02543514667 5.05891483679 1.3612970968
1060 1 4.15816959374 7.7823482768 1.17339828005
1091 2 5.3579428368 6.43343336403 2.82716684412
1092 1 7.01886559337 7.76534283165 1.36440583834
614 1 9.90895977133 4.9876754451 1.46889241512
1123 2 8.52225260812 6.41049617495 2.84522556381
1124 1 9.90287909146 7.83273721968 1.47053196887
646 1 12.7589126895 4.9882139758 1.64476652227
1155 1 11.2502704891 6.41015268213 2.98546849592
1156 1 12.7569860397 7.82861246332 1.64466206252
1157 1 11.4093186074 6.40871794678 0.13842844142
1187 1 14.1188934267 6.40844889328 3.1549668767
1189 1 14.268525176 6.40753933663 0.305247888122
678 1 15.62283167 4.98983145157 1.82267941274
1188 1 15.6229222218 7.82546199027 1.82316225624
1221 1 17.1211195856 6.4073366531 0.483840446354
1219 1 16.9717619944 6.40792324415 3.33725433425
710 1 18.4485703396 4.98081397997 1.99473906853
742 1 21.276711547 4.98814993061 2.15889973879
1220 1 18.4500914629 7.83371729701 1.9955767064
1252 1 21.2795014426 7.82338363061 2.16024686822
1253 1 19.9465505067 6.40706672998 0.65373591676
1251 1 19.7602598874 6.40714207849 3.5032086781
774 1 24.14740726 4.97627207519 2.31001189968
1284 1 24.1505037951 7.82384431344 2.31225063191
1285 1 22.8026932613 6.40508003048 0.814208148282
1283 1 22.6207491752 6.40400400839 3.65498183896
1315 1 25.4908960933 6.39495933357 3.81227116337
1317 1 25.6732472976 6.39578234701 0.970681468937
806 1 27.0124692183 4.9640335095 2.47011560252
1316 1 27.011240364 7.81847134706 2.47520210417
1349 1 28.5330403369 6.38594286032 1.13265391337
838 1 29.8648018443 4.95621795812 2.63844234709
870 1 32.7120874173 4.9539805118 2.80380081127
1348 1 29.8546884103 7.81311117077 2.64427980239
1380 1 32.6929015671 7.80380520114 2.82373045191
1381 1 31.3857148696 6.38183686265 1.3012677077
902 1 35.5455642616 4.94318165661 3.01163441543
904 1 35.8182096201 4.99289333713 0.156694199518
1412 1 35.5486443672 7.78445103641 3.0242115279
1413 1 34.2634747355 6.38115589889 1.48203319929
1414 1 35.8286748477 7.84481477701 0.176229003258
1445 1 37.1069328039 6.38110841247 1.66629107475
934 1 38.3193363197 4.96349308634 3.26070541372
1444 2 38.2104956314 7.64713839515 3.39840712264
1477 1 39.8001824868 6.3132143296 1.89507819309
936 1 38.7074443148 5.01279178021 0.29413595928
1446 1 38.7731892031 7.78005226007 0.285227035981
1510 1 43.5598558341 5.34164235456 2.91490586314
966 1 41.060435682 4.9185465535 3.46697739795
1509 2 43.5303453617 6.47293450416 0.917550508538
1511 2 41.4982444059 7.15625140966 3.18390859322
968 1 41.6896847853 5.00294052355 0.439651132221
6161 1 43.6623687497 7.94685912184 2.84753789073
1987 1 41.2849843814 8.01184840588 1.09222632308
1000 1 45.4943832733 4.91205746531 0.556479752099
6159 1 46.0931821103 5.06318706695 3.18961440623
6160 1 47.2650088717 6.44467777321 1.73503923285
6669 1 46.1217525565 7.94585587092 3.30526207018
6671 1 45.4766612717 7.63596717763 0.529378059676
6192 1 48.7259929105 4.99152605351 3.14078792202
6193 1 50.0193985046 6.42531708647 1.64176103697
6129 1 48.4617018313 4.97721635109 0.23783129182
6702 1 48.7195230053 7.89794764747 3.15833903568
6639 1 48.5092127735 7.79377700289 0.184788775653
6162 1 51.3879609524 5.00674954435 0.164518567788
6224 1 51.562940309 5.00554425981 3.01524519368
6225 1 52.8851020779 6.44244951604 1.52454273782
6256 1 54.4126326124 5.0059295969 2.87771255629
6734 1 51.5190031153 7.8750622758 3.01109043452
6766 1 54.3959666621 7.86187972389 2.87998688726
6672 1 51.3478529711 7.86017939839 0.164070776256
6194 1 54.2465863718 5.01761630511 0.034818246254
6704 1 54.2365543837 7.86204600248 0.0289464264459
6257 1 55.7489816024 6.43774910232 1.38506958504
6288 1 57.2635274977 5.00109735 2.7261840189
6798 1 57.2596217039 7.85819470875 2.73084491115
6289 1 58.6062086639 6.43415191563 1.23152748392
6320 1 60.114847826 4.99792979487 2.56204278576
6321 1 61.4566843572 6.42913303004 1.06004618674
6830 1 60.1150516869 7.85523444225 2.56869123205
6351 1 64.4895766619 6.42693570207 3.72204004765
6352 1 62.9698193702 4.99996499643 2.38843182236
6353 1 64.313116479 6.42770240954 0.88289837508
6385 1 65.8440714895 5.01545194072 2.21180264425
6862 1 62.9726903488 7.85113423782 2.39452484
6895 1 65.8446588181 7.84156800663 2.21408604007
6384 1 67.3647310214 6.43315078145 3.54092202349
6386 1 67.1913773264 6.43070782575 0.706630623874
6418 1 68.7042177377 5.03465777358 2.03192839705
6928 1 68.7153560579 7.82992993742 2.03517629418
6417 2 70.1927500111 6.43768457136 3.50099073617
6449 1 73.0179552281 6.46275671357 3.17747266488
6450 1 71.5029099932 5.05321672464 1.85529413284
6354 2 70.0082637083 6.42678186182 0.383170885029
6387 1 72.8586848576 6.45064169184 0.359764321941
6960 1 71.5046848404 7.83378211786 1.85982041959
6481 1 75.9103872042 6.45295560043 3.01877670958
6482 1 74.3655804395 5.04737438844 1.67594161635
6419 1 75.7470646493 6.44325127388 0.184509637104
6992 1 74.3895641538 7.85334074525 1.68461046292
6513 1 78.7868504909 6.44557495747 2.86278682145
6514 1 77.2701552925 5.02272743219 1.5232609491
6546 1 80.0925561542 4.99480633391 1.34435077197
7024 1 77.272116419 7.86396352369 1.51813881858
7056 1 80.1264745287 7.87301756055 1.34317447983
6451 1 78.6143571859 6.44298960957 0.00493352394653
6545 2 81.5280560114 6.46282381412 2.65907112107
6578 1 82.8138715157 4.98032757709 1.13396850147
7088 1 83.136978906 7.83426328296 1.23214548566
6577 1 85.0931221851 5.78145854182 1.41851416022
6609 1 86.8011064023 4.26401654936 1.55865837728
6100 1 87.1714290505 6.73943360838 2.36274832011
7118 2 84.7394486749 7.04654097508 3.17598481309
7140 1 91.1234881198 5.97323229446 2.32335307536
6119 1 89.2482854077 4.56299209258 0.394037713848
7137 1 89.1251244981 7.02409562823 0.865564306351
6630 1 88.879260059 4.9917233524 2.84740794168
1569 1 2.60466102374 9.20065937399 2.4935132696
1539 1 1.38769716108 10.6413878269 0.934866662994
2079 1 2.73821794005 12.0760917536 2.52857072537
1570 1 4.19641425874 10.618027958 1.17392308893
1601 1 5.50208199397 9.18465864204 2.6800117797
1602 1 7.02970362667 10.6303325872 1.35309723123
2111 1 5.51313593704 12.0561923351 2.71924478954
1633 1 8.37037564732 9.20401335747 2.8288154835
1634 1 9.88417409179 10.6630636672 1.48910209819
2143 1 8.3934807986 12.0583974349 2.86908007259
1635 1 8.53108307842 9.22418242063 0.00330969036076
1665 1 11.2451037085 9.24565236963 2.98348275287
1666 1 12.7466585931 10.6811322952 1.63728957334
1667 1 11.3995513837 9.25219478956 0.138894926921
1697 1 14.1063218742 9.25566379315 3.14617574511
1699 1 14.2622353878 9.25504761744 0.304158895073
2175 1 11.2522920983 12.0828783664 3.00390071724
2177 1 11.38265145 12.1118501687 0.130003415411
2207 1 14.0928956303 12.1110176456 3.14311558963
2209 1 14.2472217355 12.1159306924 0.296813005995
1698 1 15.6019746084 10.6901169928 1.8032968137
1731 1 17.1141295039 9.25975877686 0.474469147422
2241 1 17.1091724204 12.11930239 0.4656405789
1729 1 16.9367188375 9.27839817132 3.2984643497
2239 1 16.9456249483 12.118710845 3.30909978377
1730 1 18.4530354328 10.6935809144 1.97407494847
1762 1 21.3027778631 10.6888407722 2.14285105945
1763 1 19.957307198 9.25902488922 0.645134288759
2273 1 19.9664207253 12.1198187869 0.637080751409
1761 1 19.8017141212 9.27691677971 3.46894277895
2271 1 19.7954152726 12.1195851814 3.47815219237
1794 1 24.1550043499 10.6816775146 2.30852637436
1795 1 22.8087590358 9.25343416719 0.812925504073
2305 1 22.8198382244 12.1154141408 0.805045381734
1793 1 22.6336109079 9.25333159479 3.64896323676
2303 1 22.6449468141 12.1150141276 3.64495471175
2335 1 25.4871737655 12.1150132219 3.81074391627
1825 1 25.4905312508 9.25118506888 3.81201991651
2337 1 25.6737218732 12.1136331721 0.972042017957
1827 1 25.6741476929 9.25092397425 0.973620299288
1826 1 27.0074382005 10.6834475249 2.47547756034
1859 1 28.5291682333 9.24815849353 1.13846979348
2369 1 28.5257965758 12.115393868 1.14079868332
1858 1 29.8496929558 10.6819531359 2.64742299654
1890 1 32.6783992953 10.6659011812 2.83130337338
1891 1 31.3759535475 9.23960943484 1.31104030421
2401 1 31.368074685 12.1116512351 1.31285663779
1922 1 35.632959789 10.7116596013 2.91766681623
1923 1 34.2343571182 9.21335518727 1.530167256
1924 1 35.5661506245 10.6309259766 0.147858709923
2433 1 34.1002377659 12.1146608174 1.51969739118
1955 1 37.1867061543 9.13209751357 1.7592724796
1954 1 38.5027481171 11.1471385141 3.0666512853
1956 1 39.5404390496 10.0997653876 0.640949610578
2465 2 37.5086192596 11.2722282653 0.924312856244
1988 2 40.7041976756 10.0772561546 2.67859396307
2019 1 42.5506656951 10.1336731877 0.825334868896
2497 1 42.9504890683 10.7868892174 3.20610162615
2017 1 41.009146164 12.0365630209 1.64037169542
2020 1 44.7708852418 9.82369022568 2.05910297258
7181 1 45.6023968241 11.2610411787 0.455247718393
6670 2 47.2240705679 9.09992751558 1.46947120276
6703 1 49.9599809181 9.3116335477 1.62934504387
7212 1 48.6048045338 10.7141943074 3.13891886367
7213 1 49.9632332715 12.1581457765 1.66948189512
7149 1 48.4777790927 10.7170343269 0.198474727406
6735 1 52.8678474169 9.28615022694 1.51960171931
7244 1 51.5072468704 10.7046655991 3.00783036979
7276 1 54.3915828215 10.7027772694 2.88437507651
7182 1 51.3334875694 10.7220891843 0.178144773224
7245 1 52.8708716198 12.1278381998 1.52991057803
7214 1 54.2294620522 10.7021842906 0.0307068332497
6767 1 55.7430740353 9.28224195321 1.38455538375
7308 1 57.2564778183 10.702618406 2.73388745371
7277 1 55.7413600664 12.1247754988 1.3863815834
6799 1 58.6025849939 9.27994212219 1.23319127982
7309 1 58.600364094 12.1249778809 1.23187365738
6831 1 61.456160147 9.27636356846 1.0633642308
7340 1 60.113308543 10.7021030011 2.57042082768
7341 1 61.4569817031 12.1236324361 1.06261490375
6861 1 64.4923596778 9.27277516414 3.72347112806
6863 1 64.3174548394 9.27004748026 0.887533974574
7372 1 62.9732609502 10.6994863159 2.39608263993
7405 1 65.8359421826 10.6938065855 2.21634076413
7371 1 64.4898200585 12.1248745408 3.72611168203
7373 1 64.3152557949 12.1203022893 0.886282503852
6894 1 67.3611144162 9.26086835937 3.53392292696
6896 1 67.1916123393 9.25628640018 0.718524317804
7438 1 68.7005982289 10.6843509979 2.03935488852
7404 1 67.3503325788 12.1227213125 3.54371457703
7406 1 67.1783154719 12.1183043885 0.712893644281
6927 1 70.1992506709 9.26343563132 3.36226583715
6959 2 73.0597757095 9.29474140914 3.18732067838
7470 1 71.5340037848 10.6875868326 1.86230795504
6864 1 70.0345023939 9.25602853661 0.540026048334
6897 1 72.8706153164 9.25978262094 0.376976083415
7437 1 70.2101622808 12.120594933 3.36558376015
7469 1 73.0619422859 12.1202398412 3.19040076477
7374 1 70.0362361587 12.1165104887 0.538507281115
7407 1 72.8870751755 12.1110655142 0.367462371654
6991 1 75.9253271534 9.28300989272 3.01783909865
7502 1 74.4117622462 10.7032673545 1.68268277454
6929 1 75.7475778416 9.27518824558 0.189644968839
7501 1 75.9237957724 12.1256586851 3.02232138626
7439 1 75.7518669536 12.1167350345 0.183998504534
7023 1 78.7942585959 9.28129368345 2.86161782749
7534 1 77.2772251526 10.7042171974 1.51790693423
7566 1 80.1484851331 10.708824165 1.3566407324
7533 1 78.7922189205 12.1400692298 2.86295864683
6961 1 78.6274314165 9.28346118088 0.00432086682965
7471 1 78.6295655349 12.1274715822 0.00400178122047
7055 1 81.6150155331 9.25491212922 2.73010982589
7598 1 82.9259709382 10.6100128967 1.35674409795
7565 1 81.5866948742 12.1306462825 2.79559552943
7535 2 84.019761943 12.0091933808 0.100850020221
7120 1 86.2775527613 8.26960523795 0.492055603581
7087 1 84.5453961137 9.32113427803 2.61957522423
7630 1 85.8931118882 10.8795777989 1.21659542875
7119 2 86.9351145552 9.24363150002 2.46099725614
7599 2 87.5646380714 11.8697765054 0.147678246324
7568 1 88.5818101713 9.84306087108 0.976140636915
8139 1 88.1981487817 11.8316715572 2.74448725839
7139 1 90.5140235704 10.595950783 2.25282656487
6627 2 90.4178481114 8.34876460401 2.43508246363
7648 2 0.285257579136 12.3586023688 2.23867891979
2589 1 1.70211117313 13.6357110275 0.9772037634
2557 1 2.73574418735 14.9875507164 2.61478282369
2080 1 4.21756960913 13.4972362227 1.2225323758
2112 1 7.06725906273 13.465813959 1.42700173388
2621 1 5.54864473457 14.9307933097 2.76131587823
2623 1 5.72882764129 14.9293763718 0.068395702826
2144 1 9.9168994739 13.4965029689 1.53457629666
2653 1 8.41943995666 14.9379496025 2.90141555606
2655 1 8.61779290589 14.9048030225 0.112476266705
2176 1 12.7338156278 13.5379502545 1.63763269111
2685 1 11.2609300074 14.9447863971 3.02652296577
2687 1 11.3552138426 14.9817512435 0.133147569847
2717 1 14.0921041952 14.9602465134 3.14855559591
2719 1 14.2377484818 14.9692992734 0.295553661148
2208 1 15.5956880599 13.5432047576 1.80116338173
2751 1 17.1074684172 14.9706624092 0.465306197208
2749 1 16.9449647618 14.9697696016 3.30951149699
2240 1 18.4558134065 13.5480646986 1.97134667704
2272 1 21.311875004 13.549706352 2.14201975196
2783 1 19.9722722074 14.9769237743 0.638962315664
2781 1 19.8030925234 14.9786024882 3.4766221736
2304 1 24.1572421577 13.5474885723 2.30632650249
2815 1 22.825057822 14.9796888319 0.804523549928
2813 1 22.6543275464 14.9904063789 3.64278153339
2845 1 25.4761627169 14.9932941088 3.80854310424
2847 1 25.6705722202 14.9811907571 0.971771124246
2336 1 27.0014392228 13.5515307779 2.47688233927
2879 1 28.5215850014 14.9819020426 1.14219267655
2368 1 29.8483805148 13.5536712195 2.64924086599
2400 1 32.6679194194 13.5656238211 2.8415113665
2911 1 31.3775879819 14.9803703152 1.30643427305
2432 1 35.4686875447 13.5167352447 3.01971148616
2434 1 35.7284643722 13.407480211 0.182769655887
2943 1 34.2388747123 14.9619731629 1.4743112817
2975 1 36.9022533643 14.9964216156 1.57686884803
3009 1 39.3327701922 14.2993496858 1.23840849069
3005 2 37.922235249 13.6701103542 3.14723332569
2494 2 40.2288645211 15.8013936971 2.62964119303
2530 1 43.5923191005 12.4737164791 1.4790255431
3519 1 41.3832903922 15.7691975414 0.505601982608
3039 1 43.1257427541 13.2625591539 3.67521074668
3037 1 41.5929752024 14.1164965234 2.25037795014
3040 1 43.6952597478 15.0010940276 1.75328906339
7180 2 47.3694839784 12.3421868848 1.35134398031
7689 1 45.5487916945 13.0492421014 2.90314588725
7691 1 45.5748567038 13.7619391591 0.444262957317
8199 2 45.7286663933 15.4223204078 2.62488720746
7690 1 47.6146628217 14.7923718779 1.78496122843
7722 2 49.0669687807 13.6630816274 3.53495913862
7723 1 50.1105487396 14.9815813623 1.68039475969
7754 1 51.5876224303 13.543775194 3.0648100351
7755 1 52.8982042186 14.9630632457 1.53612365502
7786 1 54.4050500186 13.5445784089 2.89843142913
7692 1 51.3402582185 13.5415666539 0.171530308312
7724 1 54.2311213233 13.5409996371 0.0284821304959
7787 1 55.7440204739 14.9714822246 1.38700504122
7818 1 57.255586442 13.5505391926 2.73781431173
7819 1 58.5998289895 14.9744443415 1.22898540585
7850 1 60.1132219523 13.5518740748 2.57073358768
7851 1 61.4571458451 14.9733444144 1.05968348937
7881 1 64.4878007846 14.9782516939 3.72655548181
7882 1 62.9720337768 13.5501527546 2.39550660163
7883 1 64.3140764121 14.9728663109 0.884728369761
7915 1 65.8308769948 13.5489756993 2.21697469058
7914 1 67.3457288016 14.9786704393 3.54658023391
7916 1 67.1730837791 14.9740262124 0.709023912071
7948 1 68.6910683872 13.5488986707 2.04014314856
7947 1 70.2050291917 14.9794907336 3.36853386071
7979 1 73.0672093579 14.9829254367 3.19451161693
7980 1 71.5508553838 13.546723223 1.86598958225
7884 1 70.0314482812 14.9730189955 0.532110709049
7917 1 72.8883595132 14.9694530338 0.354881176674
8011 1 75.9336452849 14.9888130549 3.02998675397
8012 1 74.4088595209 13.546564628 1.69325970739
7949 1 75.7400094944 14.9575569946 0.169504995955
8043 1 78.7757837336 15.0064973727 2.8681123899
8044 1 77.2745769841 13.5530441077 1.51894456805
8076 1 80.1463656644 13.575417512 1.36192555092
8075 1 81.5757818531 15.0553958855 2.79294193062
8108 1 82.7929140678 13.5643909995 1.31562725933
8045 2 83.87005586 15.1170256647 0.0976921205353
7597 1 84.5478614557 12.2755018169 2.57901638554
8107 1 84.3471048167 14.9635290396 2.55034515667
8140 1 86.9653195298 13.6243563406 1.41606725447
8670 2 86.3713496297 15.6931585983 2.26268167775
8648 2 89.1794828591 14.3236123611 2.07354505025
2559 1 91.3634454407 14.8296876459 1.96164939781
7567 1 89.658975097 12.6915841401 0.60512681243
9158 1 89.7331535922 16.3091409761 3.81386322923
2591 1 1.61211724748 16.3977878928 1.0013693134
3099 1 2.73125543014 17.7808709635 2.62609167069
8669 1 1.60948188105 19.2331863068 1.08037013017
2590 1 4.25215129497 16.3999485969 1.28433668396
2622 1 7.10509139871 16.3812265141 1.52087820323
3100 1 4.26796229839 19.2236675094 1.29802507551
3131 1 5.56975107226 17.7984185793 2.78199654794
3132 1 7.10233958732 19.2760270927 1.50892329697
3133 1 5.77942108826 17.8228991602 0.0750560465293
2654 1 9.93741836284 16.3886372737 1.59377358671
3163 1 8.43490420138 17.8382389944 2.95282320836
3164 1 9.95017932171 19.2531664646 1.59705764881
3165 1 8.59485376907 17.8358085459 0.244559766431
2686 1 12.7362588639 16.3872084065 1.64692943402
3195 1 11.2910146397 17.8001188276 3.02895572439
3196 1 12.7427265939 19.2347685205 1.64782968465
3197 1 11.3575774988 17.8125862738 0.143240755333
3227 1 14.0946237234 17.8129818929 3.15335622319
3229 1 14.2390310188 17.8113850411 0.29668941909
2718 1 15.5941980639 16.3908994039 1.80351527786
3228 1 15.5946988182 19.2383364237 1.80250637505
3261 1 17.1054402825 17.8155692333 0.463604364607
3259 1 16.9443220198 17.8180765591 3.31069892454
2750 1 18.457377316 16.3992394101 1.972527024
2782 1 21.3256029457 16.4177803068 2.14718063976
3260 1 18.4531366915 19.2424449716 1.96940428477
3292 1 21.325172642 19.2462816954 2.13763109429
3293 1 19.9715598643 17.8231023681 0.634744691693
3291 1 19.8104585015 17.8325111195 3.47626504319
2814 1 24.1572111732 16.4245471355 2.30443267777
3324 2 24.1688586995 19.2510572297 2.16219466923
3325 1 22.8123031801 17.8146604226 0.782806543671
3323 1 22.6687580664 17.8536688809 3.64154432147
3355 1 25.4602004222 17.8585060859 3.80565207723
3357 1 25.6864343079 17.8178718467 0.950165866178
2846 1 26.987623897 16.4236462751 2.48060455455
3356 1 26.9879619648 19.2549080883 2.46967152864
3389 1 28.5238883523 17.8348543949 1.13641923614
2878 1 29.8514831104 16.4124419561 2.64592239434
2910 1 32.7034052711 16.404791478 2.81620442004
3388 1 29.8611577012 19.2547229277 2.64237071633
3420 1 32.7068127925 19.2587139022 2.81404771149
3421 1 31.3903466835 17.8312944895 1.29989401386
2944 1 35.7917733321 16.4097380301 0.100093220065
2942 1 35.4813109457 16.4479825705 2.99386551277
3452 1 35.5305388399 19.2587166579 3.0085242731
3453 1 34.2365733717 17.8447064269 1.45355096051
3454 1 35.8105792138 19.2693487469 0.107921781244
2974 1 38.1526735589 16.3977133346 3.12497359971
3485 1 37.036511442 17.8690180669 1.6222427063
3484 1 38.2258073811 19.2463076653 3.1937559476
3486 1 38.7457149606 19.2294868454 0.367129306453
2976 1 38.7519779428 16.5427863143 0.543988355854
3517 2 41.0173152195 18.2789987455 0.983407034392
3007 1 42.1821157912 16.9284393356 2.46573612265
3516 1 40.9712285218 19.2377881943 3.36678812329
3550 1 43.1259657503 19.3732340988 2.17955983062
3006 1 43.178058036 17.2305729987 0.277571797808
3042 1 45.5654290966 16.4940349954 0.398883568443
2496 1 44.5013806005 17.3262287273 2.58947490217
8200 1 47.2165637625 17.6140685306 2.00597070421
8709 1 45.9147791792 19.2809776069 3.41927419429
8201 1 45.5497595237 18.9740403638 0.913635329703
8232 1 48.9121889465 16.3717307071 3.29630236067
8169 1 48.5318900169 16.4268519172 0.304955675961
8233 1 50.1252232157 17.7675576801 1.75033628956
8742 1 48.7484152167 19.2172563278 3.21631122775
8679 1 48.6119594146 19.0627181924 0.527846350979
8202 1 51.3998777573 16.4037656887 0.18222679545
8264 1 51.6441033019 16.4085230778 3.08084784981
8265 1 52.9157240319 17.8361133777 1.54547665075
8296 1 54.4156538793 16.3999362101 2.90274087763
8774 1 51.5979023621 19.2569734945 3.08146143387
8806 1 54.4203924557 19.2673397802 2.90197100669
8712 1 51.3689238061 19.2464778856 0.204501989418
8744 1 54.2356636378 19.262276364 0.0422543281085
8234 1 54.234454645 16.4005211655 0.0361523644929
8297 1 55.7481410922 17.8309004144 1.39100812481
8328 1 57.2579569121 16.4025004236 2.73751603808
8838 1 57.2632141891 19.2614329666 2.73557479735
8329 1 58.6024192749 17.8296755346 1.2298897852
8360 1 60.114350114 16.4031906571 2.56874094741
8361 1 61.4599279362 17.829799911 1.06052279765
8870 1 60.1172087048 19.2601159872 2.56648168668
8391 1 64.4874389052 17.8337702505 3.72459007804
8392 1 62.9720708277 16.4031642759 2.39387895544
8393 1 64.3156186804 17.8304096019 0.885056349056
8425 1 65.8289094124 16.4034832838 2.21595477693
8902 1 62.9729074778 19.2612553974 2.39201307168
8935 1 65.828408384 19.2612637916 2.21462458938
8424 1 67.3435314902 17.8333922128 3.54549095895
8426 1 67.171139723 17.8304639562 0.706978499774
8458 1 68.6866652135 16.4034831569 2.03756960159
8968 1 68.6839699201 19.2590955757 2.03522615153
8457 1 70.2002387792 17.8313519557 3.36640742419
8489 1 73.0626847297 17.8286550985 3.19077573603
8490 1 71.5460868259 16.4021666038 1.85995514176
9000 1 71.5407679203 19.2524203792 1.85521893252
8394 1 70.0268007904 17.8277292914 0.527084215869
8427 1 72.8832210515 17.8213729473 0.346271253588
8521 1 75.9375305043 17.8231010034 3.01993181892
8522 1 74.4091033363 16.3992606331 1.6848508599
9032 1 74.4025309778 19.2412401432 1.67908000665
8459 1 75.7289267207 17.8075267317 0.155563687547
8553 2 78.7132799432 17.7952680707 2.71151807479
8554 1 77.2336967714 16.3687543403 1.48774756758
8586 1 80.1091160073 16.3723976501 1.32562868014
9064 1 77.2169832127 19.2426200807 1.48122246751
9096 1 80.0059483168 19.1975301327 1.27196643299
8618 1 82.8872469416 16.6592786834 1.25826961646
8585 1 81.5193175619 17.837604514 2.73007366665
9128 1 82.7401572847 19.1311526434 1.0481073202
8555 2 84.853681979 18.5158970433 0.748522065006
8617 1 84.7066202252 17.6856835466 2.76075166111
9160 1 84.3782995232 20.3360221116 2.29652152774
3068 2 87.8328863697 17.3422254614 0.205773173278
9180 1 87.8534617401 17.723815022 2.71752186894
8647 2 90.7525307168 16.6147274913 0.546335318211
9179 1 91.4923849819 17.7422487485 2.33585309877
9097 1 89.8408527664 18.9133242023 0.78373389994
8649 1 89.9128344674 18.9653957322 3.65051289042
10179 1 88.3880673484 20.2134532068 2.49030571972
3609 1 2.75721854363 20.671918456 2.6111725673
3578 1 1.50382148856 22.0620023684 1.02917032349
4119 1 2.77464519036 23.5073978672 2.5669125334
3577 1 1.14164538251 22.0887526917 3.8102410337
3641 1 5.56228620243 20.6983418885 2.74824448824
3610 1 4.26694011843 22.1304631391 1.22645789567
3642 1 7.12387484907 22.1031685847 1.44849835492
4151 1 5.6058995646 23.5184479187 2.74338560475
3673 1 8.44704304048 20.6627403399 2.93224967855
3674 1 9.93832628825 22.1015454483 1.55054954152
4183 1 8.44247887241 23.5234363266 2.89631552605
3675 1 8.64651529908 20.7084438217 0.107235268498
3705 1 11.2965494644 20.6898557573 3.01848042207
3707 1 11.376066301 20.641835726 0.135076307138
3737 1 14.0967895186 20.665501495 3.15076639209
3739 1 14.242774209 20.6569496715 0.293276276189
3706 1 12.7481057851 22.0883993722 1.63930828738
4215 1 11.2698720936 23.5304079506 3.01381710373
4217 1 11.3999164661 23.5111986974 0.134118515334
4247 1 14.0972331012 23.5234218638 3.14529714045
4249 1 14.249730634 23.5176201835 0.293731687734
3771 1 17.1041574331 20.6635291173 0.461994571632
3769 1 16.9432123267 20.6663709681 3.30902080288