ITEM: TIMESTEP
34000
ITEM: NUMBER OF ATOMS
10200
ITEM: BOX BOUNDS pp pp pp
0.0 91.5382635842
0.0 28.55
0.0 45.7691317921
ITEM: ATOMS id type x y z
8 2 1.47363423736 2.12287719354 0.992681303549
549 1 2.64286995699 3.69002303111 2.44173306013
39 1 2.79301972013 0.781409699514 2.53898327133
7 1 1.05706182991 2.2145907215 3.68199224797
40 1 4.22366676826 2.23279590124 1.17401406319
72 1 7.03346626797 2.19621855765 1.32013488035
581 1 5.54133675999 3.64941348526 2.65346248786
71 1 5.52423650223 0.757444746134 2.68177266882
104 1 9.88652747226 2.16067386139 1.48199563124
613 1 8.37008656412 3.61658471173 2.80106135211
103 1 8.36891380629 0.73627499674 2.81965774537
136 1 12.7546879943 2.14632811423 1.6480893957
645 1 11.2491116206 3.57861334044 2.98339147635
647 1 11.4117485756 3.57384019723 0.147853883696
677 1 14.0989570485 3.56595643361 3.14311465251
679 1 14.2656354251 3.56803558623 0.30875306836
137 1 11.3971865831 0.718138774889 0.145857995926
167 1 14.0982690726 0.718849690716 3.14726327835
169 1 14.258138776 0.712464367659 0.306057904292
135 1 11.236821496 0.72582715252 2.98291265784
168 1 15.6050862284 2.14601336398 1.81371703284
711 1 17.1111938208 3.56668036378 0.471743533518
709 1 16.9518111202 3.56426843765 3.30849950302
199 1 16.9456566396 0.715525260205 3.31087809437
201 1 17.1108595814 0.710877392194 0.468125471851
200 1 18.4522565183 2.14167135772 1.97396652303
232 1 21.3079210256 2.13696417898 2.13404309032
743 1 19.9639462784 3.56382849536 0.633439957911
741 1 19.794225506 3.56818860226 3.47797946234
231 1 19.7961760769 0.712085412973 3.47366081744
233 1 19.9650582102 0.709927914251 0.630342378268
264 1 24.1653494706 2.13287414647 2.29396224872
775 1 22.8214576242 3.55895872668 0.793250460474
773 1 22.649614123 3.56252148209 3.63919953425
265 1 22.8237197493 0.708411949393 0.79050511433
263 1 22.6499207138 0.709120639262 3.63532601585
295 1 25.5048290165 0.70757041402 3.79813537957
805 1 25.5005548714 3.55793774348 3.80227851133
297 1 25.6872387184 0.707009755503 0.948630128317
807 1 25.6812059582 3.55353744837 0.951081228774
296 1 27.0224282927 2.13015391789 2.45515952524
839 1 28.5366612194 3.54972165656 1.10822108241
329 1 28.5503307774 0.708838914269 1.10641322284
328 1 29.8801911455 2.13452913347 2.61597636099
360 1 32.7567217102 2.15327284955 2.76512282874
871 1 31.3941610874 3.55296843817 1.26409848803
361 1 31.4127213337 0.722210422599 1.26421228624
392 1 35.6294779951 2.20056882741 2.91913747572
394 1 35.8093696269 2.17282419539 0.0871341467774
903 1 34.287100675 3.5764861001 1.42118136318
393 1 34.2989265975 0.754270422554 1.43255458801
426 1 38.6183024237 2.21750261466 0.242686921174
935 2 37.1214109928 3.77521247987 1.43452421318
967 1 39.8750167996 3.65631695757 1.78793261708
424 1 38.2849285313 2.24139903619 3.09556583692
457 1 39.8054968883 0.82347613094 1.77956575895
425 2 37.0839752306 0.625706414948 1.57058464047
456 1 42.7469686651 3.47636909195 1.93498617247
458 1 41.3725588838 2.22105522137 0.416258446403
5081 1 42.5379053407 0.819110675042 1.98603591498
487 1 41.085654105 2.22636122955 3.32905017956
998 2 43.7571356344 2.2019133431 3.55128843022
999 2 44.9973926559 3.20522714735 0.844525535023
5650 1 47.1135722693 3.39005807404 1.87692722303
5649 1 45.17547213 1.16370113281 2.17415369062
5140 1 47.5067327487 0.768499602316 1.84511051611
5173 1 50.0846174276 0.737603975637 1.65658005841
5682 1 48.8571328803 2.15165951698 3.22312565157
5619 1 48.5852121102 2.19127697908 0.214264735541
5683 1 50.0737348122 3.5854310414 1.72948221044
5652 1 51.3788597127 2.13886566907 0.151837901879
5205 1 52.9104365964 0.724650036308 1.53870082441
5714 1 51.5954122764 2.14014615197 3.06394915061
5746 1 54.4538392339 2.11529965032 2.91421961116
5715 1 52.9677381163 3.51331148027 1.58103789988
5684 1 54.2528943797 2.11356912408 0.0340962520808
5237 1 55.7669386775 0.689178174749 1.38213193459
5778 1 57.2804104379 2.12451826718 2.72986417685
5747 1 55.7686414002 3.54682234061 1.3888836962
5269 1 58.6083801263 0.686291606062 1.21765394323
5779 1 58.6132166105 3.5509857161 1.2137960334
5301 1 61.4626268039 0.687411086529 1.04457317881
5810 1 60.1269226697 2.12281944894 2.5504969365
5811 1 61.4635783988 3.55043555634 1.03867899149
5331 1 64.5023349911 0.696479533885 3.7031287787
5333 1 64.3265396732 0.694529591543 0.869595666445
5842 1 62.9829778421 2.12390272613 2.37135761495
5841 1 64.5029893751 3.55311875344 3.70010104211
5843 1 64.3276217355 3.5524135938 0.862976341851
5875 1 65.8462647637 2.12710368542 2.19246615525
5364 1 67.3568233153 0.693115214088 3.52722778547
5366 1 67.1825251202 0.693711799719 0.689271076368
5908 1 68.6972252001 2.12432734919 2.01870711814
5874 1 67.3596825115 3.54823484473 3.53048769423
5876 1 67.1993482038 3.5631208232 0.68153405798
5397 1 70.2059218827 0.687207965463 3.34985645591
5429 1 73.0514666521 0.682436784454 3.16905690267
5940 1 71.5371394812 2.12098385299 1.84072989226
5334 1 70.0277792789 0.687731787666 0.513253466564
5367 1 72.8693693014 0.684838773828 0.331322224112
5907 1 70.2096723809 3.54546401517 3.35687082272
5939 1 73.0523337972 3.545273875 3.17618640306
5844 1 70.0304144288 3.56525304476 0.514725640888
5877 1 72.8544572246 3.56141882336 0.328078272842
5461 1 75.8642454472 0.674168543419 2.96610741836
5972 1 74.3728275095 2.12139058305 1.65318224723
5399 1 75.7301637165 0.672008262303 0.165984262955
5971 1 75.8751524652 3.56992435271 2.98297089193
5909 1 75.7203676855 3.54604324857 0.16171282406
5493 1 78.6966528238 0.712045876555 2.84774377369
6004 1 77.2242934974 2.11860261332 1.49909497931
6036 1 80.0903422239 2.09368093143 1.3690909065
6003 1 78.7678569937 3.52691495144 2.85452677164
5431 1 78.5772510196 0.669767090298 0.0118941624233
6068 1 82.9728243873 2.06586704065 1.233533129
5525 1 81.5815545199 0.666278716781 2.7158553752
6035 1 81.628635663 3.49476431824 2.75216329822
6608 1 84.6166937062 3.44280841289 2.4769518627
5590 1 84.5002695414 0.370387128512 2.623769865
5527 1 85.6861543755 1.74366550376 1.05300007251
6117 1 87.4093152242 0.424714685376 2.44778110393
6609 1 87.1620680779 2.93233731723 2.38887794885
6120 1 88.5921604987 1.78109076163 0.843441712178
6097 2 91.0320169791 0.476483694045 3.04824904779
6610 1 89.5969875715 2.51467029592 3.477196562
6579 1 91.49568451 3.90403679726 1.90426484249
518 1 1.30540969693 5.44971644788 0.713921153831
1059 1 2.74849426309 6.44496363433 2.4932461949
1028 1 1.41722281117 7.91028064182 0.908873803165
7140 2 0.279392696839 6.58186614199 2.43747403478
550 1 4.21728051514 5.06199361954 1.16381734251
582 1 7.04003030148 5.07777751711 1.29897432168
1060 1 4.2759701762 7.8458203686 1.18954439349
1091 2 5.52753597254 6.43156585826 2.812927879
1092 1 7.05159152885 7.78661819837 1.30909855137
614 1 9.91224057665 4.99851562636 1.49998903735
1123 1 8.39918100256 6.42628484589 2.82634498045
1124 1 9.91764104078 7.85233632731 1.50444531255
646 1 12.7653597968 4.99694053577 1.65198386407
1155 1 11.2601990798 6.42063395254 2.98948799807
1156 1 12.7630199279 7.84560864247 1.64984426141
1157 1 11.4234221007 6.42227958946 0.145897792178
1187 1 14.102177769 6.424146988 3.14597461663
1189 1 14.2691797749 6.41962622863 0.309354675341
678 1 15.607686395 4.99350794362 1.81389658084
1188 1 15.606620018 7.84363772807 1.816790975
1221 1 17.1108302898 6.4184237278 0.473884066181
1219 1 16.9514552263 6.42366653466 3.31085150372
710 1 18.4485752873 4.99250562816 1.97968362639
742 1 21.3071934714 4.98989216824 2.13792282115
1220 1 18.4503203147 7.84513124328 1.9794187104
1252 1 21.3037276732 7.84504831742 2.14221674714
1253 1 19.961761138 6.41723265608 0.637309508787
1251 1 19.7934717483 6.41806466531 3.48137940664
774 1 24.1615791607 4.98480493497 2.29816736717
1284 1 24.1549872049 7.8406140662 2.30306635091
1285 1 22.8164214199 6.4142689431 0.798601714255
1283 1 22.6484825619 6.41789231343 3.64450397474
1315 1 25.4958153427 6.41236852669 3.80744970729
1317 1 25.6718311427 6.40986695139 0.959759067081
806 1 27.0138164785 4.979610272 2.46002039979
1316 1 27.0060627835 7.83570584895 2.4666485476
1349 1 28.5251304353 6.40605632997 1.12116160284
838 1 29.8603381467 4.9717612282 2.62210611929
870 1 32.7156958509 4.96127292344 2.78050023073
1348 1 29.8548732551 7.82919746816 2.63288121778
1380 1 32.6532720784 7.78867130281 2.78780360982
1381 1 31.3674524648 6.38757244247 1.27328977788
902 1 35.5651672753 4.99702610673 2.94301412767
904 1 35.7832450971 5.05633541789 0.054700978721
1412 1 35.4736353221 7.79750283764 2.97403743616
1413 1 34.2156934384 6.38633513833 1.44845444331
1414 1 35.6314522014 7.80237580444 0.0694136765581
1445 1 37.0630320972 6.47495948913 1.5831577985
934 1 38.3413283801 5.04434923593 3.11280303208
1444 1 38.300380206 7.89890310045 3.10652231878
1477 1 39.8693674125 6.49616818322 1.82513294115
936 1 38.7274333203 5.12924599561 0.207233162006
1446 2 38.76012957 7.90735773323 0.279245941536
966 1 41.2353978202 5.07894665145 3.25938488866
1509 2 43.364947424 5.82983687554 1.68118881808
1511 1 40.9671567294 7.94561694559 3.4577020472
968 1 41.513615556 4.9970251533 0.457067726567
6161 1 43.6072899331 7.70580171363 3.32348907391
1510 1 43.7785871987 4.91837066246 3.73435724515
1000 1 45.3754371424 5.27508271934 0.214851504557
6159 2 46.0906286952 4.70721071535 3.70292162123
6160 1 47.1107466464 6.32711126718 2.03514503271
6669 1 46.1596247498 8.13145499238 3.48203388989
6192 1 48.7215770837 4.92778068762 3.23908550814
6193 1 50.0799099522 6.35309746726 1.79274300039
6129 1 48.2179322488 5.00688314211 0.417986344632
6702 1 48.7713897895 7.76519078655 3.26546253237
6639 1 48.6609859883 7.64616016449 0.319160057827
6162 1 51.6416249857 5.08865163232 0.326933386018
6224 1 51.6283444653 4.95838141463 3.06920611029
6225 1 52.9721032489 6.46242575955 1.61624459573
6256 1 54.4463733288 4.98054725573 2.91847121308
6734 1 51.5570459661 7.83588394017 3.08433996004
6766 1 54.4338035833 7.86039852457 2.92294866364
6672 1 51.3599160972 7.79286655756 0.22124712621
6194 1 54.2527848533 4.98034874233 0.0566549970995
6704 1 54.2394947874 7.84131824566 0.0436512852811
6257 1 55.7583800511 6.41421109119 1.39383519911
6288 1 57.2812535823 4.98739317726 2.72267724442
6798 1 57.2736958061 7.841348251 2.71809530326
6289 1 58.6173272819 6.42364629496 1.19793852845
6320 1 60.1271476484 4.9850373126 2.54238727237
6321 1 61.4565481748 6.4185504869 1.02363762284
6830 1 60.1253074567 7.84064415672 2.52968196665
6351 1 64.5049638162 6.4034214744 3.6993161441
6352 1 62.9804782894 4.98165865717 2.36586069074
6353 1 64.3313660344 6.39916809024 0.863850553375
6385 1 65.8516628896 4.97823924613 2.19323493809
6862 1 62.9832223216 7.82930714947 2.36213519888
6895 1 65.856339693 7.82034341976 2.19281609546
6384 1 67.3662397728 6.40186636962 3.53183861749
6386 1 67.2118494408 6.39823992597 0.690824814675
6418 1 68.6886301162 4.96097857633 2.04129680342
6928 1 68.7039015465 7.83614900399 2.04258851246
6417 1 70.2174110102 6.39982174451 3.35988811327
6449 1 73.0572954383 6.40187664929 3.18147439129
6450 1 71.5555706989 4.96305246056 1.86262412846
6354 2 70.0372745148 6.38686137035 0.654271742921
6387 1 72.8575891568 6.39748007248 0.343907498662
6960 1 71.55169325 7.82109977903 1.85554639676
6481 1 75.9193755737 6.39350029319 3.01211420371
6482 1 74.3764518159 4.98403883124 1.66420594353
6419 1 75.7337502132 6.39044829058 0.17308971724
6992 1 74.4056860585 7.80375901315 1.66550980704
6513 1 78.7672752208 6.39609415236 2.8507826385
6514 1 77.2527898191 4.9625986139 1.50644903882
6546 1 80.08169401 4.92669721014 1.33716330958
7024 1 77.2512030242 7.82380691007 1.51259145808
7056 1 80.0954235724 7.82987196188 1.33462780864
6451 1 78.5855576131 6.3824450383 0.00341514479596
6545 1 81.4640046082 6.38681672854 2.68322063494
6578 1 82.7099316144 4.89742615859 1.15859451114
7088 1 83.0223218519 7.71965200745 1.2480895392
7118 2 84.6703838254 5.62617343812 1.76869414936
7120 1 85.8442950464 7.89065315169 1.05641069318
6100 1 86.6971937663 5.11900208642 1.01191738661
7138 1 86.0649012502 5.36643619824 3.80689306098
7119 2 86.2318715153 7.78013979863 3.48112910317
6119 1 89.0165784757 4.18749871545 1.29503584822
6607 2 88.0999683602 4.64383609299 3.30153153888
7137 1 88.1371701069 6.912308619 2.2093439928
6630 1 90.2225413646 5.27779448246 3.46889631527
6069 1 90.0980712055 6.58550937561 0.907985567603
1569 1 2.79881914283 9.28302076281 2.51683121557
1539 1 1.45089566714 10.6588568426 1.06789597894
2079 1 2.71756526787 12.1164783653 2.57459488344
1537 1 1.12738847722 10.6796501365 3.76729716712
1570 1 4.28754121239 10.7037489597 1.1956634208
1601 1 5.58257488931 9.24052171953 2.68794190094
1602 1 7.07372427161 10.6772153913 1.34806964093
2111 1 5.55975914787 12.1156092756 2.73123263514
1633 1 8.38842661994 9.23757061159 2.82115433933
1634 1 9.90236124908 10.6957533807 1.49316769537
2143 1 8.41669096289 12.1046474135 2.87567527717
1665 1 11.2554480563 9.26985166171 2.99119349932
1666 1 12.7526916221 10.7102543616 1.64722422111
1667 1 11.4140008032 9.27750309788 0.14957189643
1697 1 14.1035942368 9.27526970685 3.15118399359
1699 1 14.2626600488 9.28089012038 0.309005718091
2175 1 11.2603098584 12.1193225479 3.01236204121
2177 1 11.394243262 12.1489012053 0.143360157147
2207 1 14.0958366509 12.1397210627 3.15197127176
2209 1 14.2514176645 12.1460147734 0.30928795188
1698 1 15.6021246539 10.7113124696 1.81172002959
1731 1 17.1093105349 9.27936049322 0.474619387304
2241 1 17.1071425908 12.1420681616 0.474798932345
1729 1 16.9450626828 9.27584343188 3.31657962406
2239 1 16.9455897804 12.1400845121 3.31575091331
1730 1 18.4515842337 10.7080775858 1.97888321909
1762 1 21.302029164 10.7044384346 2.14519886867
1763 1 19.9591079253 9.27695290206 0.641204439486
2273 1 19.9599766069 12.1378104358 0.64201269366
1761 1 19.7941692031 9.27554668438 3.48330828963
2271 1 19.7958905567 12.1362452216 3.48377683986
1794 1 24.1507207157 10.6998501482 2.30730835152
1795 1 22.8108422108 9.27461351323 0.804958089013
2305 1 22.8102346662 12.1334385058 0.806603447778
1793 1 22.6452708644 9.27341827703 3.64863336573
2303 1 22.6442786809 12.1314090871 3.65017889999
2335 1 25.4857146357 12.1262942496 3.80785959417
1825 1 25.4886457868 9.26564236739 3.8085206145
2337 1 25.6631010978 12.1293101182 0.971430184963
1827 1 25.6642739967 9.27119090402 0.968691629879
1826 1 27.0008947363 10.6937758793 2.47103113362
1859 1 28.5208439879 9.26696503817 1.13451223123
2369 1 28.5205266075 12.1228293606 1.14023158091
1858 1 29.8537775454 10.6861373778 2.64311259004
1890 1 32.6750426009 10.6757190232 2.82044586148
1891 1 31.3779389681 9.26294876298 1.29788944201
2401 1 31.3879949634 12.111799023 1.31522144938
1922 2 35.1737367329 10.4772499254 3.17613797777
1923 1 34.1752435191 9.22250512776 1.46471138145
2433 1 34.240079329 12.0704953728 1.52454041884
1924 2 35.6131979494 10.6635381432 0.0191743097889
1955 1 36.8523553738 9.15214598068 1.49513808099
1954 2 38.0702127562 10.4714080215 2.69690616318
1956 1 39.2270466225 10.5347889722 0.668338917142
1987 1 41.00971169 8.63228895647 1.09252255549
1988 2 41.0284207578 10.4231869283 2.68490905888
2019 1 42.1553457756 11.0024165297 0.411938991314
2497 1 43.3318958455 11.1903677216 3.04711443816
2020 2 43.557157834 9.32160545992 1.43179631301
7181 1 44.963603536 11.3710039692 1.21787870613
6670 2 47.42699956 8.88756750945 1.65139106608
7179 2 45.7693381785 10.7181259903 3.5452674373
6703 1 49.9950169588 9.23709381472 1.72386268453
7212 1 48.5421116209 10.6311442926 3.18857989014
7213 1 49.9560925058 12.0472700375 1.67013289213
7149 1 48.4957536029 10.6108703719 0.300160813727
7182 1 51.317345446 10.6501309178 0.188504553878
6735 1 52.8698359616 9.2519900591 1.55191536681
7244 1 51.4996747332 10.6673596748 3.04502492557
7276 1 54.3867189824 10.6794450091 2.88956250732
7245 1 52.8383492339 12.092853858 1.53585014079
7214 1 54.2007031678 10.6733412213 0.0401097141286
6767 1 55.7421682945 9.26235421523 1.38236275712
7308 1 57.2636626106 10.6766151894 2.71010271151
7277 1 55.7248712129 12.0979845993 1.37672921674
6799 1 58.6059853461 9.25381903403 1.18751886052
7309 1 58.6085432816 12.0819696668 1.1911568426
6831 1 61.4635232843 9.24791244657 1.0136057774
7340 1 60.1228531569 10.6647436459 2.52607840331
7341 1 61.4556416361 12.07884178 1.0199358192
6861 1 64.5070769319 9.24946461146 3.69713899884
6863 1 64.3363842938 9.24110931246 0.860282091637
7372 1 62.9829238575 10.6672569768 2.35937509197
7405 1 65.8547247966 10.6660072647 2.19009609364
7371 1 64.5033511367 12.0965027788 3.69422494987
7373 1 64.3312932979 12.0921551636 0.863040805566
6894 1 67.3700849433 9.24998816054 3.52762076934
6896 1 67.2141306658 9.22901565652 0.686740745255
7438 1 68.726530145 10.666123594 2.02926833276
7404 1 67.367546602 12.0981535247 3.52251923563
7406 1 67.1982951805 12.0891930349 0.693489407189
6927 1 70.2400960012 9.25101918709 3.35563539609
6959 2 73.0812327354 9.11657872782 3.19118198955
7470 1 71.5839942137 10.6647859814 1.8736992528
6864 1 70.0615017776 9.23632730292 0.536153423864
6897 1 72.8736093204 9.22840918949 0.360066733945
7437 1 70.2412995282 12.1000192072 3.3478342002
7374 1 70.0637128532 12.084732829 0.535624655639
7407 1 72.8919549088 12.0902435266 0.36599707074
6991 1 75.9043211245 9.25012658543 3.01007623189
7502 1 74.3809479795 10.6683960675 1.69971920515
6929 1 75.7214942132 9.24764213282 0.18996811603
7501 1 75.9101971061 12.1074176399 2.99631409662
7439 1 75.7307172787 12.0860355264 0.188134163838
7023 1 78.784009306 9.25757478038 2.84525764491
7534 1 77.2507017303 10.6744471465 1.51363909739
7566 1 80.1276546049 10.668462385 1.33165917379
7533 1 78.7937303912 12.1159239831 2.826067627
6961 1 78.5885761734 9.24246235585 0.00203685805891
7055 1 81.6335193737 9.24045832827 2.65044082902
7598 1 82.9855941881 10.6527342656 1.16345984593
7565 1 81.6234894134 12.1443240369 2.63804918131
7087 1 84.4539861751 9.25266345353 2.56837397203
7630 1 85.7341188464 10.7606306487 1.22386074437
7568 1 87.4680456363 9.4954160991 2.11201594917
7599 1 87.6026966926 11.9731903728 0.179920203376
7597 1 84.4291702924 12.0980277341 2.61242582505
8139 1 87.3960677613 12.0018395689 2.6503307482
7090 2 89.6975041827 8.98279622222 1.93717033461
7139 1 89.8200538539 10.8843781578 3.46772188437
2589 1 1.5296291262 13.5238042386 0.999483141937
2557 1 2.66136875537 14.9941164535 2.56972960089
2080 1 4.20616730777 13.5189009594 1.2372473969
2112 1 7.08223772016 13.5129783641 1.4396553005
2621 1 5.53411065973 14.9801800229 2.75274081241
2623 1 5.70545161803 14.9638869857 0.100711179138
2144 1 9.92935316781 13.5422287713 1.54755429444
2653 1 8.41948722151 14.9904787816 2.90539854711
2655 1 8.62019271083 14.9521188712 0.134929516733
2176 1 12.7393683388 13.5748022293 1.65068292249
2685 1 11.2635724913 14.9905270386 3.03665264994
2687 1 11.3623343375 15.0250153872 0.151714315847
2717 1 14.0932381894 14.9972690594 3.15818117356
2719 1 14.2405548635 15.0057288475 0.310527749744
2208 1 15.5966248678 13.5721674582 1.81199214499
2751 1 17.1049113523 14.9991994696 0.47522519427
2749 1 16.9449934984 14.997070152 3.31729035178
2240 1 18.452461906 13.5685434722 1.97874563338
2272 1 21.3042971853 13.5647988353 2.14533366736
2783 1 19.9629234737 14.9970669802 0.642769188516
2781 1 19.7985836859 14.9963219687 3.48194657798
2304 1 24.1500746506 13.5592592449 2.30670442409
2815 1 22.8144222235 14.9959710047 0.808469030458
2813 1 22.6467418193 14.9965605605 3.64464765463
2845 1 25.483634283 14.9930365852 3.79957719084
2847 1 25.6627724286 14.9917901186 0.973222145495
2336 1 27.0006220273 13.5554977088 2.4698618508
2879 1 28.5246803447 14.9815385587 1.14008963579
2368 1 29.8596014376 13.5441997791 2.63858666548
2400 1 32.7297033231 13.5285319293 2.80968730466
2911 1 31.3984292568 14.962896302 1.31085810655
2402 1 32.9360575506 13.5108400609 0.0107966438076
2432 2 35.5291822378 13.6145069383 2.97895006129
2434 1 35.8775990769 13.4115847063 0.282204569299
2943 1 34.2600836781 14.9352885467 1.46966174773
2465 1 37.8775673273 12.7099124344 2.02163450198
2975 1 37.1758633232 14.9491425823 1.69892422684
3009 1 39.7898323829 14.9863958611 1.61791250943
3005 1 39.2285144205 13.9301245323 3.67850953993
2498 1 38.8249578054 13.5229747417 0.112688541213
2017 1 40.7676050189 12.6242263312 1.73770330814
2530 1 43.3864860907 13.0878613873 1.39204780497
3519 1 41.9068747163 16.1751280015 0.275378307285
3037 1 41.9215302428 14.7432118893 2.34726046148
3039 1 43.4278539043 13.5947396498 3.78513550132
3040 1 44.2505417058 15.3219797473 1.90160652087
7180 2 47.2733806706 12.2491123944 1.42712607512
7689 1 45.7266454079 13.0780585356 3.1115487249
7691 1 45.5637912718 13.6660551583 0.438930925324
7690 1 47.110640525 14.9496872597 1.91983673314
7722 1 48.6379287076 13.331961368 3.16617226149
7723 1 49.9524954253 14.951243966 1.72487613872
7659 1 48.4912893465 13.6341027465 0.254104653032
7692 1 51.2810596402 13.5277693152 0.201189137365
7754 1 51.4872321277 13.5098046695 3.03180348979
7755 1 52.8399170263 14.9429127809 1.54318207222
7786 1 54.375807536 13.5150436021 2.88039670855
7724 1 54.1892930905 13.5237173736 0.042934395471
7787 1 55.7237674255 14.9452014383 1.37625471846
7818 1 57.2568462963 13.516183927 2.70669476218
7819 1 58.5981621583 14.9458545183 1.20498742537
7850 1 60.1198774973 13.5171100449 2.53404977573
7851 1 61.459801569 14.9467295762 1.03372346792
7881 1 64.4978622296 14.949964559 3.69614703249
7882 1 62.977639343 13.51745861 2.36158558655
7883 1 64.3229304232 14.9487959714 0.863417836897
7915 1 65.845629357 13.5222026054 2.19245951577
7914 1 67.3596051725 14.9528523594 3.52326521685
7916 1 67.1852771943 14.9496286704 0.690386272328
7948 1 68.7101008282 13.5218973189 2.02269340057
7469 2 73.0749652595 12.2449026649 3.17313590324
7947 1 70.217664125 14.9578427163 3.3471344415
7979 1 73.0734954271 14.9655378477 3.16762151835
7980 1 71.5471657908 13.54157311 1.83506405212
7884 1 70.0397648087 14.952097589 0.514797862423
7917 1 72.8939473029 14.9552574587 0.338947214844
8011 1 75.9391616578 14.9751076859 2.98299728818
8012 1 74.4226689702 13.5451848824 1.65599120263
7949 1 75.7567745103 14.9598083612 0.165834164053
8043 1 78.7906746354 14.9854472796 2.81442652378
8044 1 77.2707157047 13.5386750145 1.49496599968
8076 1 80.1243771683 13.5544322456 1.30881360232
8075 1 81.6798443888 15.0115593994 2.60790675022
8108 1 82.9839868064 13.4959388699 1.13169055869
8107 1 84.41062131 15.0215983238 2.46465240651
8140 2 85.6365384636 13.3214143637 1.17127974327
8670 2 87.7961914618 14.4585311487 3.13667082165
3068 2 87.2789352908 16.2577588755 0.246428467203
7648 1 91.5255522474 12.2583474456 2.31345615776
8648 2 89.4945336369 12.3108813121 1.35495324214
2559 1 91.4698947309 14.9922190709 2.43315389075
8647 2 90.3183516384 16.1460348748 0.851876652828
8158 1 89.7914680453 13.4803958273 3.6264219148
2591 1 1.3841004562 16.3911393354 0.984081709928
3099 1 2.627826287 17.8219296553 2.57829320405
8669 1 1.33028920713 19.2357516988 1.08464769684
2590 1 4.17703898511 16.4217935217 1.28740547726
2622 1 7.08038345209 16.4263784475 1.54059341128
3100 1 4.16164636348 19.2637730343 1.30040299064
3131 1 5.51086922535 17.8451218109 2.76798273101
3132 1 7.05427256498 19.321589445 1.53433050822
3133 1 5.72249721508 17.8585998439 0.119639946417
2654 1 9.93510731027 16.4364565007 1.60868874604
3163 1 8.40872980267 17.888571708 2.95562934404
3164 1 9.92883737155 19.3031750116 1.61743871189
3165 1 8.57250682065 17.8807907237 0.278783151031
2686 1 12.7370350292 16.4304389324 1.66122581684
3195 1 11.2818128451 17.848819527 3.03742185671
3196 1 12.7355335578 19.2801280942 1.66261752261
3197 1 11.3532889186 17.8589434736 0.16595322567
3227 1 14.0924709707 17.8550845824 3.16178206651
3229 1 14.2384180849 17.8523607201 0.312826880343
2718 1 15.5944445752 16.4260720255 1.81458624159
3228 1 15.5943534973 19.2770978093 1.81263001821
3261 1 17.1040360491 17.8500408977 0.473921533799
3259 1 16.9445893838 17.8514836984 3.31674246418
2750 1 18.4529360809 16.4244752532 1.97821722608
2782 1 21.3118747751 16.4290667734 2.14337317198
3260 1 18.4517909412 19.276190141 1.97476422083
3292 1 21.3108892827 19.2754404159 2.13940929327
3293 1 19.9659442849 17.8511607739 0.641680265632
3291 1 19.8011635698 17.8531264691 3.47785900895
2814 1 24.1523408876 16.4240896169 2.30388778641
3324 2 24.156299653 19.2749966466 2.30035344916
3325 1 22.8126775341 17.8446096513 0.801880882129
3323 1 22.6433685342 17.8480754649 3.64458838395
3355 1 25.4915251457 17.8502265011 3.79853446577
3357 1 25.6722189697 17.8406459109 0.966870727449
2846 1 26.9988537982 16.4230022113 2.46606907563
3356 1 27.0099806442 19.2728435613 2.46292705619
3389 1 28.5294954802 17.8379854043 1.13767123205
2878 1 29.8698491819 16.4068257802 2.63133728133
2910 1 32.7410099776 16.3892307835 2.79946618554
3388 1 29.8799064124 19.2679583219 2.62734541673
3420 1 32.7491329333 19.26402978 2.79026836439
3421 1 31.4066767366 17.8242111489 1.3028087082
2944 1 35.7704351426 16.3292269383 0.163207171517
2942 1 35.573795085 16.3777566592 2.98450114051
3452 1 35.6221488324 19.2828490072 2.94198519073
3453 1 34.2740659174 17.8164095795 1.47174304824
3454 1 35.8130042139 19.2364386986 0.134547643561
2974 1 38.3851789536 16.4260718931 3.17146294191
3485 1 37.0634774398 17.7871577238 1.66815489863
3484 1 38.455539857 19.3350181011 2.93977585924
2976 1 38.4848737868 16.3954845252 0.267164399613
3486 2 38.4796569713 18.9347475047 0.223290631988
2494 1 40.0381204022 17.4977407119 1.77574521466
3517 2 41.7871239004 18.6719715913 0.46079920122
3007 1 42.4535002956 17.1875533452 2.37499893532
3516 1 41.1608725079 19.49963521 2.85412667511
3550 1 43.416647408 19.7168593118 2.2252913233
3042 1 45.7252457124 16.4678470923 0.371244812788
2496 2 44.7529340598 17.8407679183 1.87282764927
8200 1 47.1626326817 17.8466270283 1.9385632662
8709 1 45.8601976543 19.3262838296 3.45029813139
8201 1 45.539855616 19.5828707665 0.565971668167
8232 2 48.7537745544 16.4780630026 3.2262844829
8169 1 48.4076434244 16.4086727015 0.357922200936
8233 1 50.0380550333 17.8043342844 1.6999644966
8742 1 48.7904535968 19.2083368834 3.28041849874
8679 1 48.4984511224 19.1776725251 0.416388950008
8202 1 51.3162643598 16.369506206 0.210668774227
8264 1 51.5278474912 16.3688990104 3.05605130628
8265 1 52.859243277 17.8045074746 1.54079801441
8296 1 54.3850164445 16.3685894576 2.88052466136
8774 1 51.557967692 19.2290373646 3.06201396598
8806 1 54.3981052525 19.2301376485 2.88701830429
8712 1 51.3213606122 19.2414541004 0.191696615371
8744 1 54.2042866848 19.241635878 0.0385742922494
8234 1 54.1959982386 16.3787718529 0.0428922891871
8297 1 55.7280179097 17.8069731801 1.37690949026
8328 1 57.2519999572 16.3722771975 2.71104626321
8838 1 57.2550428525 19.233319538 2.71622672505
8329 1 58.5950407937 17.8088776679 1.2100598348
8360 1 60.1168434949 16.3768952179 2.53977290904
8361 1 61.4582876281 17.8108744908 1.03832032926
8870 1 60.1152817618 19.2368846069 2.54454887061
8391 1 64.4954007704 17.8076768023 3.70007693245
8392 1 62.9772866283 16.37830594 2.36684233688
8393 1 64.3192970978 17.8097421764 0.864502470385
8425 1 65.8381386142 16.3794132517 2.1933952044
8902 1 62.9755702801 19.2379180008 2.37082583247
8935 1 65.835664373 19.2362085833 2.19595763078
8424 1 67.3531923978 17.809153408 3.52498707513
8426 1 67.1766933598 17.8085028104 0.68729343945
8458 1 68.6955812693 16.3816007428 2.01800315811
8968 1 68.6910971498 19.2357881948 2.01709704238
8457 1 70.2089873171 17.81092111 3.34717926759
8489 1 73.0669097919 17.8099603217 3.16781355775
8490 1 71.552490145 16.3821827941 1.84098447581
9000 1 71.5473889006 19.2316545921 1.83704424415
8394 1 70.0320477554 17.8065340117 0.50866266969
8427 1 72.887103831 17.800446904 0.328133640443
8521 1 75.9393339816 17.8031818856 2.98899697119
8522 1 74.41946216 16.3870826172 1.66165673606
9032 1 74.4149233657 19.211549185 1.65514412798
8459 1 75.7536272159 17.7877983842 0.143959084397
8553 2 78.7884948816 17.7888498229 2.95011790209
8554 1 77.2818827278 16.3965017673 1.48083894168
8586 1 80.0963893367 16.3862884091 1.29513247938
9064 1 77.2695056928 19.1804957018 1.47353580862
9096 1 80.0441481895 19.1592607289 1.30195151745
8618 1 83.0549075528 16.4952395968 1.05798973413
8585 1 81.600885644 17.7608269561 2.61970862937
9128 1 82.8255093153 19.2202321707 1.09331478257
8555 2 84.8121732219 18.3141687364 0.769182483748
8617 1 84.6152029676 17.9637603561 2.89287887082
9127 1 86.7588997094 19.1632524394 3.57210985714
8650 1 86.1831411589 16.3266884713 3.81352133517
9180 2 87.9683098885 19.0585744503 1.31844280279
9179 1 91.4289646805 17.7253071915 2.48624092604
9097 1 90.1263144795 18.7370121336 0.745438889227
8649 1 89.5907924739 18.859659001 3.47026973021
3609 1 2.60370207764 20.7330109512 2.54079492586
3578 1 1.28697920489 22.1888228964 0.998090343747
4119 1 2.59847211157 23.615643976 2.52942670001
3641 1 5.47789589546 20.7572370355 2.72662883552
3610 1 4.14806414503 22.2005771386 1.23522512322
3642 1 7.03485875455 22.1835087321 1.44873539453
4151 1 5.48778766201 23.6019765294 2.73250367361
3643 1 5.69510720622 20.7148137701 0.0280857022427
3673 1 8.39408179293 20.7260842748 2.92193510243
3674 1 9.9031261241 22.153262395 1.56317650529
4183 1 8.38038407024 23.5791773131 2.88720442325
3675 1 8.60419701733 20.7598574827 0.143521578694
4185 1 8.53278744387 23.5502340705 0.0192601924747
3705 1 11.2729280776 20.7388360164 3.02486763994
3707 1 11.3602907207 20.6850377468 0.157558855268
3737 1 14.0911979135 20.7070589539 3.15739266207
3739 1 14.2391144716 20.6961148324 0.308182844721
3706 1 12.736134059 22.1286355265 1.65112871734
4215 1 11.2444254247 23.5720733504 3.01702165295
4217 1 11.3809799718 23.5481438495 0.152246386594
4247 1 14.0909079967 23.5587050792 3.15016529578
4249 1 14.2457252294 23.5507266456 0.306149129974
3771 1 17.1046618412 20.6996878011 0.469943072002
3769 1 16.9446015699 20.7039724807 3.31312227933
3738 1 15.5947881722 22.1268368672 1.8077460391
4281 1 17.1072663321 23.5506396422 0.467017399698
4279 1 16.9453061326 23.5539662123 3.3091667752
3803 1 19.9679619979 20.6979505079 0.637277736474