ITEM: TIMESTEP
24000
ITEM: NUMBER OF ATOMS
10200
ITEM: BOX BOUNDS pp pp pp
0.0 91.5382635842
0.0 28.55
0.0 45.7691317921
ITEM: ATOMS id type x y z
8 2 1.58161872294 2.47701933869 1.24488324268
549 1 2.74201083568 3.71125098326 2.65285654577
39 1 2.64256579667 0.770105440634 2.58143377304
40 1 4.20862389965 2.22470595351 1.25931331191
72 1 7.05445471638 2.18009639472 1.40461808512
581 1 5.53772086803 3.61372191622 2.74266005249
71 1 5.5068706319 0.74443423396 2.74715077956
104 1 9.89453493407 2.14374906828 1.52827384928
613 1 8.38166334482 3.59937650961 2.87400426561
103 1 8.38524161637 0.725497950698 2.88613928584
105 1 8.54978821461 0.710041930235 0.035508719645
615 1 8.55850754612 3.57746840472 0.0298088545055
136 1 12.7492544176 2.13390291519 1.67516121471
645 1 11.2426782188 3.57121490577 3.02029555141
647 1 11.4064886103 3.56105008372 0.173063421063
677 1 14.0967708939 3.56313973912 3.17639827414
679 1 14.2611015894 3.55848846429 0.328707729712
137 1 11.3997344724 0.702250385782 0.176366463812
167 1 14.09525239 0.706014334998 3.17725873184
169 1 14.2578852214 0.702506639253 0.331242142136
135 1 11.2406684112 0.710723271088 3.02379186245
168 1 15.6039657844 2.13311816125 1.83374324402
711 1 17.114964471 3.56118425143 0.491801643972
709 1 16.9465097833 3.56353260662 3.33891075608
199 1 16.9469047179 0.706698974762 3.33898214714
201 1 17.115089948 0.705255702039 0.493261020058
200 1 18.456194177 2.13564188022 1.99757215323
232 1 21.3069472526 2.13802425345 2.16251107446
743 1 19.9679335004 3.56449194206 0.657643772854
741 1 19.7948183859 3.56590704699 3.50419952823
231 1 19.7953925794 0.708713274369 3.50298233093
233 1 19.9691925797 0.708162279346 0.658086545073
264 1 24.157638277 2.14052047441 2.32847170121
775 1 22.8212792981 3.56705693772 0.823104442218
773 1 22.6416728373 3.56693039556 3.66953514817
265 1 22.8227346584 0.711258096973 0.823014115227
263 1 22.6429705836 0.710583505111 3.66801201539
297 1 25.6752123968 0.715824679252 0.987944432499
807 1 25.6750744457 3.56943050847 0.988595864218
296 1 27.0076239934 2.14502857455 2.49738644983
839 1 28.5261068498 3.57450511644 1.15464889272
329 1 28.5211025108 0.721860638032 1.15228381883
328 1 29.8508049156 2.15126959891 2.6680857805
360 1 32.67261271 2.1491856494 2.83620328616
871 1 31.3710618576 3.57955658409 1.3186493757
361 1 31.3535610145 0.723504869151 1.31358873713
392 1 35.4826279373 2.1492427443 3.01929471195
394 1 35.7239272898 2.14954902207 0.138699863458
903 1 34.1973379075 3.57287642432 1.48297087149
393 1 34.1840557585 0.723190341185 1.48110881346
426 1 38.5238025854 2.19040225052 0.29412857146
935 1 37.0170001891 3.58946018102 1.66856049126
967 1 39.8214428726 3.55289103617 1.87563105692
424 1 38.2522537593 2.17022683884 3.23507763412
457 1 39.6012609743 0.777681422523 1.90392825312
425 1 37.0064544177 0.722281929385 1.66119751007
456 2 42.3259224191 3.59162436538 2.04435453511
458 1 41.2623186374 2.02990908965 0.585795096664
5081 2 43.6734058866 1.21558747165 0.521983567361
487 1 41.1184607265 2.01981086212 3.44234879588
5048 2 42.8879279101 0.207571985762 3.4048879725
999 1 44.5798494916 3.21963023908 1.99413382488
5650 1 47.2402335665 3.56303358655 1.66583116805
5649 1 46.1477794789 2.24705860319 3.44712787578
5651 1 45.7823580152 2.18009569679 0.218465732891
489 1 44.8538078163 0.721403838977 2.35053285069
5140 1 47.1947282014 0.607819768128 1.85214424186
5173 1 50.0762651756 0.590936774563 1.72927740066
5682 1 48.7008880042 2.09319481538 3.17324251949
5619 2 48.6099817368 1.79214513101 0.495639278623
5683 1 49.9635332747 3.54988611306 1.63581694509
5652 1 51.2863494195 2.09537032943 0.160428733374
5205 1 52.852070235 0.680968215364 1.52531554209
5714 1 51.5177100793 2.11164613915 3.03277441607
5746 1 54.3711121055 2.11211252661 2.86915768516
5715 1 52.833746732 3.52865402465 1.50713594967
5684 1 54.2035054347 2.10486334154 0.012327946058
5237 1 55.7302391669 0.685996690378 1.34889890981
5778 1 57.229162128 2.11584676638 2.70765632324
5747 1 55.715965728 3.53573309933 1.35893938691
5269 1 58.5696461495 0.685636136229 1.17748788397
5779 1 58.5712352771 3.54060820991 1.20165602443
5301 1 61.4282621434 0.691781293629 1.02347492319
5810 1 60.0825918829 2.1164983216 2.53847072344
5811 1 61.4324430096 3.54154953271 1.03474481811
5331 1 64.4676028332 0.695117769984 3.69615223546
5333 1 64.2993015738 0.691788103003 0.859655329071
5842 1 62.9501088457 2.1190630271 2.36563690626
5841 1 64.4742828369 3.54734445479 3.69506339783
5843 1 64.3081390824 3.55118925009 0.86594625389
5875 1 65.8193512658 2.12203511865 2.18742685795
5364 1 67.3310343513 0.694579513676 3.51505835277
5366 1 67.1654659256 0.693916877823 0.682590520763
5908 1 68.6798037372 2.12586887973 2.00526560249
5874 1 67.3388273862 3.55333986286 3.51088681577
5876 1 67.1767885767 3.55803771515 0.685046190509
5397 1 70.1857531449 0.693924169387 3.33341204343
5429 1 73.0343396046 0.695852312296 3.15320918285
5940 1 71.5296043456 2.12871206444 1.82547922078
5334 1 70.0250329771 0.693851014801 0.502303469181
5367 1 72.8854992064 0.69818429064 0.327441700673
5907 1 70.1860571286 3.55836850005 3.32640505075
5939 1 73.0295472214 3.56258539462 3.15085886965
5844 1 70.0254763567 3.55728187553 0.503333713414
5877 1 72.8776930779 3.562866313 0.330214622412
5461 1 75.881486292 0.693246206741 2.97843818822
5972 1 74.389254569 2.13111726669 1.6567699054
5399 1 75.7639423567 0.693105402609 0.182182143601
5971 1 75.887262021 3.57777418362 2.98296017108
5909 1 75.7601689875 3.549274446 0.176818098446
5493 1 78.8174951336 0.680849524495 2.94746549869
6004 1 77.2850358597 2.11246100124 1.5431692407
6036 1 80.1374088627 2.11255499527 1.39578788077
6003 1 78.8111508285 3.5343139747 2.88584404942
5431 1 78.6183150707 0.691385697649 0.0371726766287
5941 1 78.618640684 3.53825942374 0.0237635212352
6068 1 82.9597391669 2.09749713399 1.21351385011
5525 1 81.6210869689 0.675300878617 2.77308250691
6035 1 81.6731194825 3.53617156796 2.75425427639
6608 1 84.4684958146 3.47914261583 2.60334132516
5590 1 84.5782064877 0.667694448069 2.45382388926
5527 1 85.7990391205 2.15600491076 0.934102041998
6120 2 87.8014677769 3.31984851061 0.910634794642
6117 2 87.0266225573 0.544807281937 2.24542239409
5609 1 89.8017157355 2.27370879204 0.78620715321
6097 2 90.2175401477 2.12784139447 3.20375464358
6610 1 88.4724575644 3.84214069237 2.98659043284
6579 1 91.2557562026 4.05153368644 2.17492851501
9 2 90.7683266726 0.105915998392 1.04266773618
518 1 1.58979020382 5.05087726191 1.01815972729
1059 1 2.74911082018 6.44843480825 2.55403137215
1028 1 1.73446397071 7.75716649857 0.715511328792
550 1 4.30007558224 5.05001294212 1.2146843865
582 1 7.04232221362 5.01949952415 1.37002476558
1060 1 4.2790351246 7.80633536801 1.18781724498
1091 2 5.55363931236 6.44571534778 2.85837235319
1092 1 7.04967445705 7.82202058839 1.35866498845
614 1 9.8925879892 5.00354072492 1.52072108415
1123 1 8.37804772097 6.42567071961 2.86776404174
1124 1 9.89472064357 7.83462254961 1.51451796951
1125 1 8.55479802858 6.41100042211 0.0103989437085
646 1 12.7537520566 4.99020459647 1.67231737997
1155 1 11.2477975657 6.42125584875 3.01877527412
1156 1 12.7556112782 7.84507405656 1.66918090355
1157 1 11.413447157 6.41452533395 0.167220589135
1187 1 14.0987392792 6.41904788992 3.17523336619
1189 1 14.2638855705 6.41582164406 0.326085439517
678 1 15.6051228229 4.98957781213 1.83226174585
1188 1 15.6057769621 7.84653342584 1.8308316658
1221 1 17.1151837065 6.41783782785 0.490527932995
1219 1 16.9464258054 6.41935849183 3.33854075042
710 1 18.455532227 4.99159548137 1.99708924367
742 1 21.3061574235 4.99371288554 2.1629731408
1220 1 18.4550239653 7.84741399776 1.99649277763
1252 1 21.3054772672 7.84761477896 2.16283042485
1253 1 19.9671839227 6.4200382607 0.657123967074
1251 1 19.7938952186 6.42051441621 3.50451323025
774 1 24.1569744096 4.99408617939 2.3289905727
1284 1 24.1572202836 7.84687314406 2.32962756197
1285 1 22.82114813 6.42116452059 0.823254381084
1283 1 22.6419638904 6.42115116411 3.67081242847
1317 1 25.675659158 6.42148177743 0.99009993235
806 1 27.008936974 4.99483298379 2.49828403114
1316 1 27.0092054206 7.84500727855 2.49882189929
1349 1 28.5300938088 6.42354150465 1.15791464926
838 1 29.8589160078 4.99748609463 2.67041025131
870 1 32.6938225756 5.00460207333 2.84143059103
1348 1 29.8576959291 7.84657195176 2.67092261291
1380 1 32.7024338868 7.84672531758 2.85237797267
1381 1 31.3828236421 6.4311996263 1.325471373
902 1 35.4810963209 4.97185685193 3.02593034828
904 1 35.7440566041 5.01387479543 0.146122770624
1412 1 35.5383018463 7.84718997656 3.02581159608
1413 1 34.2399137396 6.44234851536 1.49603195309
1414 1 35.8177745927 7.92552718944 0.179840779741
1445 1 37.0361197182 6.39985945333 1.65865793072
934 1 38.2966834554 4.95226438997 3.24153790512
1444 2 38.1054067851 7.65070148416 3.28565436196
1477 1 39.7727769328 6.39249231506 1.90174405949
936 1 38.6343637478 5.00985254401 0.334922333754
1446 1 38.6640050952 7.88358223146 0.356600038105
1510 1 43.7851729531 5.33207877062 2.7267899133
966 1 41.0388306271 4.9832154655 3.40418172786
1509 2 43.432260268 6.77817089027 1.07233688572
1511 2 41.1816191032 7.54958772017 3.51256675325
968 1 41.5945365914 5.19181841493 0.530734828282
6161 1 43.5792318387 7.80689466041 3.03384967063
1987 1 41.2988458893 8.06177691649 0.981295489459
1000 1 45.400895112 5.12005233377 0.557460209932
6159 1 46.1466715299 5.06746415479 3.22078339308
6160 1 47.1579611836 6.59253993552 1.78758987159
6669 1 46.0103810772 7.97554051121 3.37554156802
6671 1 45.3939359234 8.05628005173 0.684153640727
6192 1 48.695041435 4.9975505581 3.14278180165
6193 1 50.0348126187 6.46530002235 1.68485729818
6129 1 48.4939783647 5.22899333493 0.348742766028
6702 1 48.7293132152 7.9153451232 3.15949185359
6639 1 48.4498664745 8.00355924188 0.356175647067
6162 1 51.2909839466 4.96389611153 0.159343497929
6224 1 51.5119829243 4.96181649051 3.01215723059
6225 1 52.8488624726 6.40023780689 1.51840177882
6256 1 54.3650988302 4.964039121 2.86843049262
6734 1 51.544966067 7.86062126099 3.03355771546
6766 1 54.3786129192 7.82326798739 2.88097448163
6672 1 51.3569998436 7.88776676743 0.191402971167
6194 1 54.1889370866 4.96774877746 0.0253781728698
6704 1 54.2136851138 7.8333647213 0.0299441810923
6257 1 55.7163130448 6.39594755132 1.37236782686
6288 1 57.2266565194 4.96894648976 2.71580695538
6798 1 57.2362148135 7.81967211167 2.72407262073
6289 1 58.581154439 6.39826957654 1.21476899077
6320 1 60.0895295965 4.96867308789 2.54702612505
6321 1 61.443171053 6.39913222565 1.04371434909
6830 1 60.0984329996 7.82173032079 2.55423513788
6351 1 64.4800709514 6.39879863339 3.69675102462
6352 1 62.9552493641 4.97045740718 2.37006727284
6353 1 64.3102514972 6.40203278541 0.86829041715
6385 1 65.8297838607 4.97992983889 2.1893669365
6862 1 62.9624410173 7.82381683976 2.3746858774
6895 1 65.8363478276 7.8269792657 2.1918237461
6384 1 67.3536751415 6.4108741138 3.5070231516
6386 1 67.1823040332 6.40762735469 0.689678979073
6418 1 68.6810110796 4.9796999069 2.01327017912
6928 1 68.6849784909 7.83064813114 2.01049370452
6417 1 70.1878959559 6.41171024183 3.32759131624
6449 1 73.0229502457 6.42052402843 3.15038427073
6450 1 71.5318966829 4.98472934096 1.83218724178
6354 2 70.0269612965 6.40005668301 0.500062519373
6387 1 72.8780775515 6.41023944247 0.332504955921
6960 1 71.5354363316 7.83154549393 1.83028657215
6481 1 75.9214982331 6.39692519575 3.00605200356
6482 1 74.3866026108 4.99267185388 1.65638983974
6419 1 75.760613091 6.39715247173 0.168034095727
6992 1 74.3963174621 7.82376618983 1.66562461405
6513 1 78.7910814801 6.38483533466 2.86182776293
6514 1 77.2823015293 4.96719224425 1.51803555385
6546 1 80.1407530127 4.94928877372 1.37507572319
7024 1 77.2771339948 7.81303724518 1.5059350646
7056 1 80.147975562 7.79662068149 1.35085025864
6451 1 78.6245931702 6.38583071748 0.00409371672964
6545 1 81.6410262997 6.344690833 2.74597772561
6578 1 83.0690914322 5.01365511416 1.23308674814
7088 1 82.8834358092 7.67378053096 1.2822167753
6577 1 84.7521992794 6.47030521751 2.52771914124
6609 1 86.0208471684 4.62711677584 1.49049937277
6100 1 87.6210557179 6.6575548174 2.78360167525
6547 2 86.5892597682 6.55027267457 0.624071963848
7140 1 91.4893033368 6.61294911457 2.49812949959
6119 2 89.5613782535 5.76161272374 1.73574335395
7137 1 89.0573909449 7.83988526027 1.00928557701
1569 1 2.75823083472 9.29307519706 2.5125667991
1539 1 1.36363904883 10.5829968882 0.90369238679
2079 1 2.65003952128 12.0660887978 2.56238387506
1570 1 4.25418193538 10.6819161348 1.20178732193
1601 1 5.55045831742 9.25044187713 2.71271305363
1602 1 7.06411160595 10.6815887769 1.36434541286
2111 1 5.54895745259 12.1083769888 2.72996378971
1633 1 8.38706685326 9.25535313495 2.85807731562
1634 1 9.90703163676 10.6955727764 1.51621379191
2143 1 8.4068780747 12.1108517875 2.8835476633
2145 1 8.57872329101 12.14273781 0.0182855118359
1635 1 8.56619388399 9.25561889095 0.0152511306419
1665 1 11.2487271465 9.26879942673 3.01503364214
1666 1 12.7543459401 10.7031871727 1.66678582233
1667 1 11.4113587492 9.27018855496 0.165456190601
1697 1 14.0991409559 9.27497659721 3.17291300799
1699 1 14.2637135358 9.27473127201 0.325106446622
2175 1 11.2609995666 12.119338258 3.02924709704
2177 1 11.4092159569 12.1388616637 0.162411864712
2207 1 14.0975880579 12.1334029523 3.17253930492
2209 1 14.2603617242 12.1368884837 0.326161948479
1698 1 15.6047501828 10.7051680894 1.83001857949
1731 1 17.1150073801 9.27580141795 0.490139742898
2241 1 17.1143342866 12.1347905921 0.490300164664
1729 1 16.9460866586 9.27579585794 3.33752871155
2239 1 16.9460038293 12.1327413643 3.3368408527
1730 1 18.4548828739 10.7041897921 1.99609639506
1762 1 21.3051601948 10.7021694338 2.16292143676
1763 1 19.9668129684 9.27589003986 0.657026929886
2273 1 19.9676214874 12.1323293123 0.657371577907
1761 1 19.7931697223 9.27481976861 3.50397370614
2271 1 19.7938980225 12.1300497339 3.50396404567
1794 1 24.1560848403 10.7013625255 2.33003440288
1795 1 22.8206578924 9.27529852949 0.824056945887
2305 1 22.8200676102 12.1303907732 0.824673069528
1793 1 22.6413348273 9.2732699022 3.67028633488
2303 1 22.6405093687 12.1272544659 3.6703553981
2337 1 25.6735833133 12.1305180411 0.992776534454
1827 1 25.6754368549 9.27553125172 0.992367472173
1826 1 27.0072420388 10.702692041 2.49875237739
1859 1 28.530403078 9.27712449932 1.1611882745
2369 1 28.5297860928 12.130929048 1.16214757996
1858 1 29.8562924756 10.701089932 2.67280812176
1890 1 32.6938345056 10.6927493133 2.86610521214
1891 1 31.3871458968 9.28011098193 1.33430460284
2401 1 31.3848656217 12.1295966104 1.33479987955
1922 1 35.5240628099 10.7260102253 3.0749209129
1923 1 34.2485488585 9.28337900315 1.53784801123
1924 1 35.7124194561 10.7082724307 0.223251915436
2433 1 34.1762784961 12.1404576906 1.54242409531
1955 1 37.1554247753 9.32787043927 1.6996448706
1954 2 38.1002283915 10.723901634 3.5533847274
1956 1 39.5190233054 10.3885173094 0.128388648572
2465 2 37.7171142358 11.6271834779 0.731898221154
1988 2 40.7988953632 10.1846027947 2.08430287554
2019 1 42.4014470839 10.1571425536 0.174202040497
2017 1 41.3289196144 12.2197808697 1.25837306369
2530 2 43.7552684657 11.9248401227 1.03703540123
2020 1 44.211666623 10.0950798811 2.58060742733
7181 1 45.5261906377 10.7677965636 0.283357593074
6670 1 47.0470518604 9.49849328985 1.8065879915
7179 2 46.1095160647 10.6394670376 3.7554258699
6703 1 50.0047141581 9.34727817753 1.67475076493
7212 1 48.6881694104 10.7523201488 3.18895455814
7213 1 50.0326517451 12.1047068577 1.63808029386
7149 1 48.4725254209 10.7230771695 0.248870766754
6735 1 52.8846318107 9.27525851521 1.53079548857
7244 1 51.5553816656 10.6987059906 3.03677382273
7276 1 54.4055704053 10.6735511465 2.89204172844
7182 1 51.3715996939 10.7062138651 0.155335636195
7245 1 52.9052221969 12.0983616555 1.5243848574
7214 1 54.2384106605 10.6821917423 0.0222731063714
6767 1 55.7349175291 9.2497567294 1.37862330749
7308 1 57.2486313366 10.67044602 2.72990296055
7277 1 55.7481385509 12.0990445961 1.37872951273
6799 1 58.590297452 9.2488121635 1.21972010673
7309 1 58.596677187 12.1003266251 1.2196646898
6831 1 61.4497633043 9.25068186828 1.0468963689
7340 1 60.1050628813 10.6742299771 2.5571194523
7341 1 61.4538397595 12.1025304123 1.04745601387
6861 1 64.4841618513 9.24973542226 3.69914329674
6863 1 64.3156667426 9.25099651744 0.869532629866
7372 1 62.9674400629 10.6766397655 2.37632521344
7405 1 65.8362156009 10.6744583972 2.19454415185
7371 1 64.4873881114 12.1040698656 3.70117483246
7373 1 64.3175871303 12.10323125 0.869819693278
6894 1 67.351633081 9.25049658947 3.51292306159
6896 1 67.1903327942 9.24593725878 0.693148790304
7438 1 68.688190853 10.6781128504 2.0083500365
7404 1 67.3517629777 12.0996486963 3.51755329314
7406 1 67.1822829231 12.1010855244 0.69161383435
6927 2 70.1934165098 9.26214828343 3.3416980517
6959 1 73.039186468 9.25154439586 3.15756883315
7470 1 71.5426787534 10.67701591 1.82971744522
6864 1 70.0314135592 9.24958504877 0.51239043561
6897 1 72.8776516155 9.24056437636 0.339758029497
7437 1 70.1985591382 12.1019405989 3.34009617001
7469 1 73.0489638852 12.0944018783 3.16664746243
7374 1 70.0350195405 12.0986776358 0.514408443603
7407 1 72.8899248743 12.0935896388 0.335826973221
6991 1 75.9215795849 9.24102305072 3.00085603036
7502 1 74.4013484331 10.6661937119 1.66625266481
6929 1 75.7559026261 9.23876718297 0.162338806337
7501 1 75.918353725 12.0926973908 3.00302242408
7439 1 75.7527930701 12.0899474259 0.159683854581
7023 1 78.7909146911 9.23342459283 2.84541385686
7534 1 77.2703276556 10.6609140458 1.49865050297
7566 1 80.1324181573 10.6528722606 1.32778403099
7533 1 78.7743003201 12.0809897334 2.84633670371
7055 1 81.6356108096 9.24933043554 2.70107142896
7598 1 82.9999991746 10.6689520527 1.14097831197
7565 1 81.6274329718 12.0716092336 2.68173974892
7087 1 84.3759663222 9.23078513264 2.52466670589
7597 1 84.4535464003 12.1572753761 2.60698292942
7120 1 86.4022426329 8.54721700311 1.60456308465
7630 2 85.6554959091 10.9285042065 1.16008748531
8139 1 87.5437122849 11.8894837824 2.23941960765
7628 1 86.003169373 10.6357975827 3.74809379682
7568 1 87.838728624 10.0548334916 0.503111751645
1538 2 91.3200292363 8.52464826657 1.17364507039
7119 1 88.2847509455 9.28740212059 2.92398179307
7139 1 90.0399127422 10.576106018 1.28901640648
6627 2 90.3300219318 9.95688799587 3.57090037725
2589 1 1.77499469129 13.5621857339 0.946297612043
2557 1 2.74657633969 14.9521030754 2.6038569731
7648 2 0.0731182512981 12.3419535244 2.10579683644
2080 1 4.25425357585 13.5202638531 1.22784257159
2112 1 7.07253972633 13.5286113113 1.41986380244
2621 1 5.53947620578 14.95457937 2.77028499412
2144 1 9.93192119491 13.5422113603 1.55507607525
2653 1 8.41349732335 14.9814959041 2.91227466528
2655 1 8.63700980451 14.9538863579 0.118626289359
2176 1 12.7479358956 13.5692189868 1.66815028008
2685 1 11.2619388478 14.9879183048 3.04615230362
2687 1 11.383075019 15.0193497332 0.164774799291
2717 1 14.0984612531 14.9905311006 3.17673327344
2719 1 14.2546122613 14.9989196954 0.326377700197
2208 1 15.6028739512 13.5642774663 1.83005270455
2751 1 17.1142222547 14.9915431399 0.491016077201
2749 1 16.9475959997 14.9884101867 3.33827941339
2240 1 18.4561233893 13.5610364981 1.99681775864
2272 1 21.3065219765 13.5588717039 2.16449755539
2783 1 19.9695506957 14.9886573786 0.658782815452
2781 1 19.7966091204 14.9873426277 3.50568255826
2304 1 24.1543447538 13.5579922369 2.33116151572
2815 1 22.8209866419 14.9870811381 0.826259109953
2813 1 22.6416871225 14.9887325317 3.67238777639
2847 1 25.6709286063 14.9858351647 0.993560526278
2336 1 27.0045623635 13.5591207612 2.49953867649
2879 1 28.5269581158 14.9839279935 1.15957847242
2368 1 29.8555372182 13.5597670175 2.67009602244
2400 1 32.6889679028 13.5707885113 2.85011923353
2911 1 31.3872070015 14.9810118424 1.32149420324
2432 1 35.5441643964 13.5588034578 3.01471558813
2434 1 35.8865261636 13.48838428 0.254831103096
2943 1 34.2716195278 14.9675458427 1.48399884042
2975 1 37.1760511516 15.1372188626 1.7144502933
3009 1 39.9283775253 14.5912853022 1.62114955396
3005 2 38.1556645425 13.822187321 3.32682588789
3040 1 43.6613555343 15.5839337989 1.47339903365
3037 2 41.2450772002 13.2211490352 3.21381247908
2494 2 41.3699091804 16.141730332 2.8665379976
3519 1 41.5735455214 16.0794158379 0.433809025017
3039 1 43.6788970624 13.4780207692 2.76387121898
7180 2 47.2532881087 12.2575482131 1.44378481064
7689 1 46.1165516238 13.3030753811 3.34197408438
7690 1 47.2981543717 14.8052427871 1.80530784934
7691 1 45.3385862408 13.641970317 0.485938223102
8199 1 45.8520804044 15.8297866732 3.28639485765
3042 1 45.7774671068 16.2663972258 0.525929418908
7722 1 48.7668462647 13.4349278033 3.20522584538
7723 1 50.1179794418 14.8772276787 1.71486328207
8169 1 48.6715135733 16.2399785447 0.391145536929
7659 1 48.5813605517 13.5832455692 0.201194479875
8232 1 48.7561716098 16.2506070656 3.2394579178
7754 1 51.5885221717 13.4789469813 3.05705128115
7755 1 52.9079333358 14.930686142 1.53474134534
7786 1 54.4153389159 13.5120822447 2.89585807731
7692 1 51.3935535528 13.511134749 0.14984739819
7724 1 54.242352254 13.5270223534 0.0207560077696
7787 1 55.7470550871 14.949752245 1.3828208198
7818 1 57.2545226489 13.5219384647 2.73177733018
7819 1 58.5981729332 14.9555896445 1.22215917833
7850 1 60.1080317416 13.5275678231 2.55830862669
7851 1 61.4556917479 14.9580882539 1.04941182741
7881 1 64.4851265602 14.9627359242 3.70318212737
7882 1 62.9692684389 13.5313251088 2.37742968511
7883 1 64.3164942608 14.959976176 0.870018442331
7915 1 65.8323338385 13.5319041719 2.19581647177
7914 1 67.3436549406 14.9634316413 3.52121618716
7916 1 67.1768568468 14.9608503033 0.688910882764
7948 1 68.6916364553 13.530646854 2.01636421266
7947 1 70.2003937688 14.9634852312 3.34266512739
7979 1 73.0592896278 14.9582270977 3.17103144473
7980 1 71.5455164749 13.5272539024 1.84003244524
7884 1 70.0355016388 14.959819451 0.509092265524
7917 1 72.8936685125 14.9539046334 0.333798081467
8011 1 75.9186742734 14.9526919056 3.01049492472
8012 1 74.4059295256 13.522554736 1.66852155841
7949 1 75.7471617664 14.946159908 0.160045379539
8043 1 78.7689250013 14.9515355989 2.86850601079
8044 1 77.2644822886 13.51851145 1.50286153617
8076 1 80.0925448143 13.5030516893 1.3451434966
8075 1 81.5521539343 14.9087311055 2.78248230594
8108 1 82.8843957608 13.5516384589 1.20099205589
8618 1 82.7190677982 16.246107838 1.30462055323
8107 1 84.3137855961 14.8761340086 2.6368397703
8140 1 85.6972024097 13.5234860027 1.08553538109
8670 2 86.3655538843 15.5801881693 2.2006700558
8648 2 88.1551680023 13.5524515266 0.660400399026
2559 1 91.5299074888 14.7201148111 1.90287127262
8647 2 90.5019667215 16.2029755655 0.60485232959
8158 2 88.6909200655 13.3419168774 3.78832933187
2591 1 1.55427286163 16.3648672262 1.0260751607
3099 1 2.65846321247 17.7736966711 2.65314106886
8669 1 1.49252438612 19.1904960951 1.09560047083
2590 1 4.24552018297 16.4012831068 1.28275575872
2622 1 7.07246118372 16.3946881394 1.49730363307
3100 1 4.22317936518 19.230943025 1.32673742654
3131 1 5.53278989459 17.8139820779 2.79459060471
3132 1 7.04688087755 19.3066033125 1.50968105924
3133 1 5.75574272731 17.8439323309 0.0736038848963
2654 1 9.92650851736 16.4315395504 1.60094787745
3163 1 8.39596546511 17.8657834537 2.95310144991
3164 1 9.91946129594 19.2811116832 1.61232880007
3165 1 8.56180966867 17.8606421641 0.246069729347
2686 1 12.7468166209 16.4246183354 1.67610953409
3195 1 11.2787657576 17.836140375 3.04466580317
3196 1 12.7441560797 19.2719067399 1.68020885517
3197 1 11.3720972466 17.8567061752 0.176846283293
3227 1 14.0988603749 17.8462196662 3.18102130324
3229 1 14.2531436125 17.8483291038 0.329453754739
2718 1 15.6032272243 16.4189389034 1.83283945865
3228 1 15.6037494589 19.2700268714 1.83380804726
3261 1 17.1149572057 17.84365761 0.491868635217
3259 1 16.9493180278 17.8425714877 3.33955318377
2750 1 18.4579308155 16.4159016406 1.99827234745
2782 1 21.3099565018 16.4169653169 2.16758145074
3260 1 18.4587796567 19.2678131422 1.99839251116
3292 1 21.314303785 19.265213459 2.1702959414
3293 1 19.97104133 17.8418139765 0.659144981387
3291 1 19.7998390943 17.8428516568 3.50681743151
2814 1 24.1534113056 16.4188165486 2.33685386273
3324 1 24.1549027607 19.2626715636 2.33360073609
3325 1 22.8228460588 17.840669342 0.827629210659
3323 1 22.6386840641 17.8368161992 3.66705668788
3357 1 25.6694360967 17.8382696295 0.99433994715
2846 1 27.0000894806 16.4137864267 2.50071319628
3356 1 26.9952771566 19.2594014833 2.5035219624
3389 1 28.5245001429 17.834227256 1.15722675352
2878 1 29.85388199 16.4087417536 2.66489787546
2910 1 32.7005299023 16.3999352893 2.82810110029
3388 1 29.8515326534 19.2544034351 2.66459656747
3420 1 32.6857312868 19.2557941757 2.83199581285
3421 1 31.3832544681 17.8286574872 1.31703231683
2944 1 35.8233317853 16.4055215471 0.150135528388
2942 1 35.4819978455 16.4219264355 3.00331945121
3452 1 35.4815448904 19.2584743272 3.03301830624
3453 1 34.2274312039 17.8365278086 1.47622642203
3454 1 35.7937258214 19.2505562472 0.149725050938
2974 1 38.6350913871 16.4175894046 3.39393614877
3485 1 37.0397174188 17.8069339262 1.73924962261
3484 1 38.0802244343 19.2629382303 3.28661239741
3486 1 38.5599990281 19.3324930165 0.368853931355
2976 1 38.7253129547 16.5816518612 0.452661070233
3517 2 40.5485549618 18.2967052672 0.860423504183
3007 1 42.5505005648 17.8475510897 1.81003209223
3516 1 41.5043510047 19.9095453839 2.55745532511
3550 1 43.8897476413 19.8134639701 1.57120011669
4059 1 43.4764380475 18.9670334827 3.81371049085
2496 1 44.8427477397 17.6601642656 2.21334535464
8200 1 47.3688723327 17.6783697738 1.92636750291
8709 1 45.9164283662 19.5567204781 3.21987915172
8201 1 45.9931065379 19.0663839394 0.609746993073
8233 1 50.1322792916 17.7314214165 1.7601860336
8742 1 48.8208321921 19.1590897318 3.27791193809
8679 1 48.7125283123 19.1384410001 0.418422610016
8202 1 51.3898729533 16.3566913318 0.176490471283
8264 1 51.6112209236 16.3281445124 3.07950202178
8265 1 52.9011198596 17.791331211 1.54727562211
8296 1 54.4131870832 16.3646210243 2.89993550264
8774 1 51.6083416631 19.2044296093 3.09657611639
8806 1 54.4074724189 19.2310007821 2.90355063235
8712 1 51.3686047726 19.2145576611 0.191865308069
8744 1 54.2246942651 19.2352953616 0.0423237468977
8234 1 54.2334218622 16.3788315144 0.032474734633
8297 1 55.7414599313 17.8071853137 1.38876750021
8328 1 57.2535049425 16.378258676 2.73299131096
8838 1 57.2502863916 19.2400651301 2.73315899048
8329 1 58.5961109185 17.8131429877 1.22484507565
8360 1 60.1078743783 16.3847008196 2.55938306247
8361 1 61.4545123761 17.8166200791 1.05107934232
8870 1 60.1052374055 19.2452239185 2.55890352199
8391 1 64.4800368744 17.8220383554 3.70469100525
8392 1 62.9675758373 16.3891347057 2.37875260852
8393 1 64.3134812688 17.8193048828 0.870519076284
8425 1 65.8278821641 16.3914634104 2.19582691221
8902 1 62.9631564183 19.249435616 2.37870214806
8935 1 65.8228152072 19.2506972615 2.19589746789
8424 1 67.3384440003 17.8221416474 3.52209005905
8426 1 67.172551373 17.8197995264 0.687720012149
8458 1 68.6869129826 16.3912149988 2.01446957124
8968 1 68.6824979731 19.2482926212 2.01353537205
8457 1 70.1969743769 17.8191066703 3.34227368159
8489 1 73.0602335052 17.8165631778 3.17081904505
8490 1 71.5479737943 16.3883122859 1.8380282006
9000 1 71.5437318014 19.2428661125 1.83533085656
8394 1 70.0324426733 17.8170426796 0.506940657316
8427 1 72.8935779694 17.8129956316 0.331682817429
8521 1 75.9250087531 17.8129052067 3.01658914632
8522 1 74.4079997735 16.383126232 1.67020446709
9032 1 74.4098690101 19.2398920072 1.66814706422
8459 1 75.7434467519 17.8035668528 0.158847343256
8553 1 78.7575441807 17.7985487392 2.8691936826
8554 1 77.2555742272 16.3733539159 1.51101347756
8586 1 80.0855618579 16.3694139135 1.36197372958
9064 1 77.257089535 19.2259710817 1.50512999474
9096 1 80.0493072418 19.1704839337 1.30812139217
8585 1 81.5802353515 17.8178198853 2.7483963131
9128 1 82.8868340953 19.1439396016 1.10413906317
8555 2 84.056366454 17.440863045 0.07780606427
8617 1 84.60272898 17.6446577 2.52218332523
9180 1 87.2660290618 17.7858692806 2.40772098114
10179 1 87.4726180713 20.2848928082 2.34479545028
9607 2 87.7003724692 20.3241580065 0.110602564346
9160 1 84.5036106644 20.3882299352 2.29138148383
9179 1 91.459234356 17.6841964517 2.36954175712
9158 2 89.2786833274 17.2358532223 3.29536788571
9097 2 90.4717621761 19.2094521815 0.779445352873
8649 1 89.5806382685 19.4425018068 3.45350690044
3609 1 2.65289841059 20.6542773293 2.65313295464
3578 1 1.57072693502 22.0879177961 1.05965131435
4119 1 2.61882323046 23.5680025518 2.65517431381
3641 1 5.49887175163 20.7023038493 2.79445912237
3610 1 4.20915109292 22.1003528217 1.3114482037
3642 1 7.03945911443 22.1235621126 1.47383425326
4151 1 5.49820380071 23.5569098746 2.7859590337
3673 1 8.39497702809 20.6881508501 2.94619796401
3674 1 9.90160903206 22.1266611217 1.58000820699
4183 1 8.38223970585 23.5421432045 2.91921501092
3675 1 8.60299931279 20.7365463982 0.136493137308
4185 1 8.53555407526 23.5242974759 0.04361433039
3705 1 11.2717924139 20.7171563902 3.03902905442
3707 1 11.3700708672 20.6775967944 0.171882947375
3737 1 14.0974461519 20.6960465424 3.18052169197
3739 1 14.2516128793 20.6923600827 0.329163200575
3706 1 12.7417908231 22.1168656965 1.67408739212
4215 1 11.2454991035 23.5502101146 3.04237837639
4217 1 11.3846692422 23.5366130087 0.17619000708
4247 1 14.0956042963 23.5466031155 3.17802264586
4249 1 14.2544721401 23.5451703834 0.331939333647
3771 1 17.1153554122 20.6941156467 0.492356429476
3769 1 16.9499086002 20.694935187 3.33950876586
3738 1 15.6028396157 22.1195602054 1.83336869158
4281 1 17.1160404931 23.545818527 0.493808784104
4279 1 16.9496370265 23.5459321473 3.33926348196
3803 1 19.972579136 20.6914720622 0.659502516251
3801 1 19.8023615321 20.6900153292 3.50671490916
3770 1 18.4602100921 22.118612219 1.99856836125
3802 1 21.3137900707 22.1141479115 2.16698613024