ITEM: TIMESTEP
26000
ITEM: NUMBER OF ATOMS
10200
ITEM: BOX BOUNDS pp pp pp
0.0 91.5382635842
0.0 28.55
0.0 45.7691317921
ITEM: ATOMS id type x y z
8 2 1.44706909863 2.53364187977 1.18209841919
549 1 2.80179891785 3.67062156019 2.58881552669
39 1 2.6420066595 0.801214992728 2.47413055318
7 1 1.07468348674 2.24375649825 3.69056203115
40 1 4.22370584512 2.21772493288 1.19893189553
72 1 7.05702915702 2.17438023195 1.35715811919
581 1 5.55810290103 3.60506524606 2.69823519393
71 1 5.51133197257 0.729529325112 2.68227157112
104 1 9.88732865335 2.14202182924 1.48976874921
613 1 8.3805776439 3.59387789609 2.83774484041
103 1 8.3854430877 0.719539576015 2.84662901298
136 1 12.7346210813 2.13041553798 1.63943593225
645 1 11.233747368 3.56730619168 2.98695176657
647 1 11.3918607316 3.56237111774 0.135880352163
677 1 14.0823541418 3.55802055337 3.1438683084
679 1 14.2414538589 3.55624355988 0.29323405809
137 1 11.3856988624 0.699465819499 0.137156792937
167 1 14.0799300649 0.699915758754 3.14449138758
169 1 14.2373499078 0.69738595088 0.294980372322
135 1 11.2320707237 0.706317425734 2.98957684087
168 1 15.5841049848 2.12742879334 1.80008278766
711 1 17.0915073905 3.55646360939 0.459019743334
709 1 16.9278889245 3.55670619566 3.30755245323
199 1 16.9269129375 0.698564086729 3.30735550676
201 1 17.0902276233 0.698026109406 0.460047749027
200 1 18.4325866124 2.12802169392 1.96619273655
232 1 21.2812910598 2.12808324675 2.13186822399
743 1 19.9411053428 3.55754207543 0.62757700651
741 1 19.7737814611 3.55706058519 3.47409399815
231 1 19.7727649629 0.698986111595 3.47218768781
233 1 19.9407185353 0.699158596737 0.627480788402
264 1 24.1331236657 2.12611384872 2.29379123402
775 1 22.7926605443 3.55657325755 0.793067494658
773 1 22.6198304629 3.55454633262 3.63845775463
265 1 22.7927075308 0.700044880314 0.791952539104
263 1 22.6197306833 0.698834240853 3.63569627371
295 1 25.4663546792 0.698210103515 3.80110834274
805 1 25.4653061991 3.54853793911 3.80373754308
297 1 25.651582928 0.700877906379 0.948782572607
807 1 25.6515371904 3.54975532896 0.95023911231
296 1 26.9840090763 2.12224431126 2.45722888221
839 1 28.5049047832 3.53913252604 1.10771050507
329 1 28.5050581206 0.700512519927 1.10612485967
328 1 29.8270346148 2.11792982955 2.62611153025
360 1 32.6539167446 2.11340139174 2.79875965223
871 1 31.3423264796 3.53912911891 1.27610495136
361 1 31.3516480944 0.694011450536 1.27613027692
392 1 35.4962467104 2.13671743884 3.01464394122
394 1 35.7651827928 2.14630376473 0.168026106405
903 1 34.1854311628 3.54992620903 1.46949167986
393 1 34.2087180372 0.700473640037 1.4742501116
426 1 38.5815707365 2.18301724923 0.335752019657
935 1 37.0310100282 3.59145397913 1.68416217405
967 1 39.8407470503 3.62444903028 1.860995406
424 1 38.2837295618 2.18134504538 3.24103925784
457 1 39.720403773 0.772533929561 1.91185141814
425 1 37.059637608 0.713072903747 1.68004650118
456 2 42.3371715605 3.49993348947 2.38317930361
458 1 41.4610672355 2.11681768294 0.542323265759
5081 2 43.6494032348 1.25979708997 0.661541214165
487 1 40.935040331 2.14360636979 3.44376371258
999 1 44.5632146745 3.14000164684 2.09691706669
5650 1 47.2335155989 3.5295228203 1.79020626228
5649 1 46.1288184534 2.22567937881 3.50947367811
5651 1 45.7992100635 2.04615282033 0.419539095365
489 1 44.8629477859 0.631150288194 2.40483608957
5140 1 47.2369123399 0.62947685364 1.86189641197
5173 1 50.0391673746 0.658151640793 1.68351452486
5682 1 48.7336313914 2.10461878937 3.20252540743
5619 2 48.5262663817 2.0918078555 0.447998700161
5683 1 50.0404692939 3.55405200406 1.67693962958
5652 1 51.3463624798 2.10755241781 0.173351257284
5205 1 52.8767399213 0.688225039245 1.53125424397
5714 1 51.5433201062 2.10962768969 3.0345153025
5746 1 54.4033922781 2.11384387991 2.88145291098
5715 1 52.8792508997 3.53415599145 1.52365350065
5684 1 54.2352390441 2.10869105754 0.0302711906656
5237 1 55.7545794748 0.68532239112 1.3659375354
5778 1 57.2588261911 2.11703725694 2.72521089095
5747 1 55.7491101565 3.53993624332 1.37622506744
5269 1 58.5965630204 0.684101801084 1.19901114062
5779 1 58.6002573655 3.54495265461 1.22352621644
5301 1 61.4518792117 0.693635286453 1.0443098761
5810 1 60.1096459558 2.11884184062 2.55929049635
5811 1 61.4541079011 3.54781717215 1.05638043742
5331 1 64.4917819392 0.698552564582 3.71556997055
5333 1 64.3160650541 0.697217248092 0.879543251331
5842 1 62.9731193746 2.12458350188 2.38642534857
5841 1 64.4982371805 3.55511857938 3.71744172236
5843 1 64.3240420301 3.56139880568 0.88762779677
5875 1 65.837265369 2.12985420496 2.20947954981
5364 1 67.3513260489 0.701053438184 3.53768002227
5366 1 67.1794699351 0.701808106165 0.707112218499
5908 1 68.6966322197 2.14034978758 2.0321398329
5874 1 67.3600330445 3.56296918617 3.53227838513
5876 1 67.1933489344 3.57156364179 0.715385412794
5397 1 70.1985671932 0.702109318378 3.36156616335
5429 1 73.0368287783 0.711375981224 3.17945958736
5940 1 71.5268018185 2.14768980941 1.85530114509
5334 1 70.0312537156 0.703195047783 0.528801349782
5367 1 72.8809182529 0.711974185667 0.355930025062
5907 1 70.1958904449 3.57343600205 3.3622475042
5939 1 73.0225175389 3.58516295232 3.17254852707
5844 1 70.0306658756 3.57924900271 0.531890725783
5877 1 72.863280393 3.58853324492 0.369040416141
5461 1 75.866480287 0.722564329322 2.99809947452
5972 1 74.3789075353 2.15415789901 1.67989349963
5399 1 75.7561153941 0.709229387368 0.211687752827
5971 1 75.8736614483 3.60896324227 3.00325091391
5909 1 75.7454882472 3.57746265247 0.203887799818
5493 1 78.7699767982 0.729629089271 2.96514250292
6004 1 77.2661778148 2.1460157539 1.56094233561
6036 1 80.1270534304 2.13044619506 1.43403105981
6003 1 78.8013664899 3.56562574929 2.9032695708
5431 1 78.604835183 0.708037915147 0.0773013715547
5941 1 78.6150114729 3.56214284571 0.0481494272446
6068 1 82.9562127652 2.10229348746 1.23500985567
5525 1 81.613884703 0.693462533551 2.83051224665
6035 1 81.670193001 3.55467854306 2.77320931016
6608 1 84.5079278082 3.57017848369 2.52410582274
5590 1 84.5430027859 0.645769736395 2.51224263311
5527 1 85.7141481177 2.03563031777 1.00904017652
6117 2 87.1965405235 0.435312284789 2.20965490198
6067 1 86.2376000611 2.26491091257 3.74686544506
6120 2 87.9587873171 2.84296662922 0.547370470353
5609 1 90.1349340514 2.46049468477 0.65836746581
6097 2 90.1452648525 2.22845359246 3.01046032547
6610 1 88.5058141691 3.82211392024 2.88115304679
9 2 90.6987629624 0.24387229934 0.638805818212
518 1 1.61604291282 5.05482131128 1.04295070874
1059 1 2.84044167717 6.40106329097 2.57525138061
1028 1 1.67839130069 7.76204288723 1.06266987432
550 1 4.30898072469 5.05092471124 1.16722409968
582 1 7.04359644 5.02663643968 1.33690714998
1060 1 4.28141035298 7.8306551583 1.18351763309
1091 2 5.5604178991 6.4438141309 2.83253529217
1092 1 7.04550835466 7.83158766612 1.33594644914
614 1 9.88454047153 5.0049282232 1.48715498608
1123 1 8.37610167066 6.42600787288 2.8390149478
1124 1 9.88696546704 7.83821911165 1.48585564635
646 1 12.7398604345 4.98849708734 1.638709185
1155 1 11.2397622035 6.41867295866 2.98847902931
1156 1 12.7429024959 7.84455177781 1.63817931925
1157 1 11.399112156 6.41802421065 0.13391127184
1187 1 14.0860528301 6.41496046424 3.14430118138
1189 1 14.245652878 6.4154324292 0.292689772195
678 1 15.586959437 4.98569909513 1.79973475209
1188 1 15.5898816297 7.84399138098 1.79995531524
1221 1 17.09415316 6.4151085989 0.459190873297
1219 1 16.9303041149 6.41393348342 3.30832478648
710 1 18.4343096279 4.98582732179 1.96674548494
742 1 21.2831058186 4.98514850496 2.13373470803
1220 1 18.4370382911 7.84339551926 1.967481869
1252 1 21.2860680421 7.84104309167 2.13500574726
1253 1 19.9435580299 6.41526155787 0.628387930235
1251 1 19.7760085742 6.41332655206 3.47587222131
774 1 24.1342174009 4.97915866293 2.29618204473
1284 1 24.1361691293 7.8345071269 2.29912205417
1285 1 22.7960274726 6.41230913331 0.794587994862
1283 1 22.622958633 6.41021956263 3.64199873469
1315 1 25.4654773624 6.40061894897 3.80718917029
1317 1 25.6529764712 6.4017470891 0.954297003944
806 1 26.983056899 4.96892807818 2.45992469463
1316 1 26.9781285238 7.82722578502 2.46547542762
1349 1 28.4966865693 6.39549355496 1.11819526497
838 1 29.8194113152 4.96334536924 2.62911146726
870 1 32.639198037 4.96768673426 2.79744741473
1348 1 29.8061924603 7.82495650468 2.63454723768
1380 1 32.6217116715 7.82167914268 2.81149008239
1381 1 31.3324258842 6.3993390109 1.28535603087
902 1 35.4458924885 4.95711985865 3.01982518326
904 1 35.7343066751 5.00703671087 0.154048605097
1412 1 35.4622214523 7.81742949295 3.016104985
1413 1 34.189805966 6.41761558343 1.47201544084
1414 1 35.7807583587 7.92600320073 0.179446513732
1445 1 36.9889447687 6.38135479536 1.67350119314
934 1 38.2795834889 4.99241058875 3.24251862513
1444 2 38.083846028 7.62999235546 3.22431976985
1477 1 39.8488000446 6.35856551822 1.90679035505
936 1 38.6139056032 5.02532063917 0.350913371863
1446 1 38.5111072357 7.85787518571 0.441049078033
1510 1 43.7102267416 5.26436655354 2.95427853631
966 1 41.0650545227 5.01581886299 3.48301226881
1509 2 43.5306205413 6.46349931425 1.04451150185
1511 2 41.1508786201 7.59809994137 3.60709349599
968 1 41.7684859516 4.87912240707 0.523894953527
6161 1 43.5241219114 7.98167490043 2.9781148372
1000 1 45.525233671 4.9057106672 0.595982957854
6159 1 46.147612784 5.06057149337 3.2873685689
6160 1 47.2477679446 6.45438045645 1.7638170446
6669 1 46.063197013 7.90965344552 3.31340934658
6671 1 45.4670090578 7.80553710582 0.607200042417
6192 1 48.7351150195 4.97628622739 3.17183854834
6193 1 50.0324755728 6.40005258246 1.6493433217
6129 1 48.4772595499 4.97949926588 0.287163712599
6702 1 48.7757612951 7.86862377259 3.14803406842
6639 1 48.4682190026 7.86697671831 0.293276607656
6162 1 51.3495168572 4.9515734152 0.161687719151
6224 1 51.5549336012 4.96732859275 3.02688294572
6225 1 52.8846325524 6.39189423511 1.52302643966
6256 1 54.4025189807 4.9657050194 2.88434858419
6734 1 51.5641040387 7.82962399517 3.02371504309
6766 1 54.4110406393 7.81371180843 2.89015278878
6672 1 51.3696019684 7.8263767362 0.168809887123
6194 1 54.2299293916 4.97352462537 0.0348983753772
6704 1 54.2495094182 7.81558807381 0.0286424023402
6257 1 55.74869641 6.39525865219 1.39004523878
6288 1 57.258626493 4.97033179083 2.73669482595
6798 1 57.2652654018 7.81872749025 2.74249622749
6289 1 58.6091967147 6.40150370425 1.23978239403
6320 1 60.115617391 4.97188906016 2.57158731832
6321 1 61.4623524978 6.40296300514 1.06842966237
6830 1 60.1192767026 7.82469986911 2.57893626629
6351 1 64.5000665379 6.40265904025 3.72393670019
6352 1 62.9761506656 4.97625196069 2.39420446891
6353 1 64.3239987044 6.40668320545 0.89170595974
6385 1 65.8540395643 4.9918454814 2.21507754862
6862 1 62.9800381656 7.82615325281 2.40155866526
6895 1 65.860656559 7.82081134889 2.22334343696
6384 1 67.3832439636 6.40916185931 3.54055262774
6386 1 67.2108031008 6.4178704569 0.721070979724
6418 1 68.7044315354 4.99882555011 2.02856796162
6928 1 68.7451957611 7.79979653539 2.05711232288
6417 2 70.1925205078 6.27204467799 3.51087565411
6449 1 73.0114412 6.44073166737 3.18393420802
6450 1 71.5134281036 5.02268806019 1.85869610349
6354 2 70.0215018269 6.40645818399 0.395230063659
6387 1 72.840741071 6.44436184024 0.388191898784
6960 1 71.4790070423 7.8416418177 1.92947058079
6481 1 75.9177484052 6.41569636082 3.03061323815
6482 1 74.3668377335 5.02440065679 1.68618049661
6419 1 75.7500888805 6.4180951713 0.198123955645
6992 1 74.3923310249 7.8161958488 1.69009211023
6513 1 78.789492836 6.40282873167 2.87912637087
6514 1 77.2745412005 4.99213450181 1.53791796203
6546 1 80.1375729933 4.97902686109 1.38167408554
7024 1 77.274079074 7.83055894749 1.5317574826
7056 1 80.143437503 7.8269194099 1.37311984509
6451 1 78.622300107 6.4111042262 0.0256860698894
6545 1 81.6463777879 6.38180972178 2.73697198351
6578 1 82.9507240264 5.01457315207 1.21725199093
7088 1 82.9522186261 7.76278660201 1.28729428747
6577 1 84.7917969324 6.34384044915 2.37346665812
6609 1 86.4908204641 4.25676118752 1.63708178647
6100 1 87.4012385942 6.45043929214 1.93085502311
7120 1 85.9482331616 8.06543267938 0.906974045777
7118 1 86.1384719134 7.95239382529 3.79767536418
6579 1 91.1364289386 4.2587709885 2.03347594134
7140 1 91.3333699607 6.70161946829 2.40661284138
6119 1 89.1823057919 5.089272579 0.696501856889
7137 1 89.3155202703 7.55237673468 1.15874565788
6629 1 91.4814332665 6.21714960484 0.0302105063074
6630 1 89.2268186501 5.98939981282 3.45681628585
1569 1 2.74606887112 9.30223857554 2.52633408351
1539 1 1.42307650733 10.6594193557 0.95164471962
2079 1 2.64816631869 12.048258241 2.58265848701
1537 1 0.99921183428 10.5711814843 3.77726735372
1570 1 4.23306559914 10.6767449005 1.17813536412
1601 1 5.55160948855 9.25867687508 2.69436157249
1602 1 7.0517235975 10.6866244726 1.34245725384
2111 1 5.52660267466 12.0970104681 2.71848072857
1633 1 8.3837944874 9.25706581476 2.83312796212
1634 1 9.89628931408 10.6972394909 1.48940736818
2143 1 8.39751991089 12.1061839121 2.86171976227
1665 1 11.2414912289 9.26728002094 2.98734805205
1666 1 12.7420643614 10.7019202912 1.63743899291
1667 1 11.3964798123 9.27340944552 0.134725691466
1697 1 14.0884078184 9.2716455382 3.14366595746
1699 1 14.2468231774 9.27472428183 0.293509350438
2175 1 11.2526946589 12.1149277364 3.00356066302
2177 1 11.3922839453 12.1377919519 0.132411161416
2207 1 14.0880295451 12.129094161 3.14465020675
2209 1 14.2439614474 12.1349762122 0.295467731482
1698 1 15.5910114019 10.7030152829 1.80042484244
1731 1 17.0968528882 9.27432407147 0.460303075692
2241 1 17.0986676396 12.1334976661 0.461584724978
1729 1 16.932913324 9.271787745 3.30841256625
2239 1 16.9354544051 12.1298785658 3.30839350385
1730 1 18.4404517837 10.7019530484 1.96809304475
1762 1 21.2893232817 10.698778845 2.13598414941
1763 1 19.9472248371 9.27306821008 0.629397694325
2273 1 19.952191319 12.1320026813 0.630891342214
1761 1 19.7787978092 9.26971166456 3.4762975937
2271 1 19.7832143257 12.128601247 3.47642122553
1794 1 24.1349053274 10.6955867987 2.30148923154
1795 1 22.7991942778 9.26913692298 0.796076500426
2305 1 22.8009157046 12.1290212166 0.796760089093
1793 1 22.6248240346 9.26557346981 3.6432578977
2303 1 22.6259089653 12.1259119163 3.64398524877
1825 1 25.4635443175 9.26171166787 3.8093964946
2335 1 25.4587938731 12.1288966407 3.81032350449
2337 1 25.6463613253 12.1289443899 0.962845287931
1827 1 25.6498740966 9.26396052578 0.960522381563
1826 1 26.9727148548 10.6964771752 2.46889117194
1859 1 28.490298136 9.26252731935 1.12680564559
2369 1 28.4869317724 12.1302868535 1.13157093907
1858 1 29.801008833 10.6953351862 2.64119673166
1890 1 32.6104556374 10.6847748643 2.83233898331
1891 1 31.3253241317 9.26256049684 1.29839659931
2401 1 31.3233448178 12.1261556691 1.30360893123
1922 1 35.3865625453 10.6555021174 3.07008350334
1923 1 34.1672885409 9.24951509015 1.51151583173
1924 1 35.6360453176 10.6870220082 0.225656986229
2433 1 34.1045249635 12.1220236754 1.51830865137
1955 1 37.0765825581 9.31813951311 1.76720124943
1954 2 37.8477596877 10.6901707301 3.67402834094
1956 1 39.5406344351 10.282857063 0.509991015703
2465 2 37.6691228117 11.5148210394 0.6703689495
1987 2 40.697655589 8.19815080456 0.666951538428
1988 2 40.6516067548 10.5280285578 2.71269282791
2019 1 42.3165516934 10.0209222363 0.791583476284
2530 2 43.7069597192 12.025483123 1.25223713633
2497 1 42.8472756857 10.9643099188 3.1312906832
2020 1 44.6153840131 9.79901755375 2.04052250284
7181 1 45.7458442446 10.9054952455 0.302678179862
6670 1 47.2151268368 9.34477795756 1.79688971338
7179 2 46.2008224692 10.6504337604 3.71064686373
6703 1 50.0399755965 9.28808248833 1.65156178344
7212 1 48.7439731741 10.7398880379 3.18135090489
7213 1 50.111353524 12.0553636279 1.63086522337
7149 1 48.5266643777 10.6739059929 0.233710377221
6735 1 52.910375911 9.2397878825 1.52281089074
7244 1 51.5993518107 10.6634560955 3.03244549578
7276 1 54.4315504875 10.6565694651 2.8955723631
7182 1 51.4096481229 10.6595840414 0.142097824254
7245 1 52.9371057951 12.0765967185 1.52148065848
7214 1 54.2659258117 10.6565150437 0.021754807527
6767 1 55.7613956548 9.23809456119 1.38947361561
7308 1 57.2702173919 10.6635435531 2.74480938903
7277 1 55.7678602931 12.0875096219 1.38760338457
6799 1 58.6108364583 9.24476856699 1.24086305319
7309 1 58.6117242027 12.0934395689 1.23809952939
6831 1 61.4629406317 9.24873615389 1.07162674295
7340 1 60.119416814 10.6716498501 2.57962716338
7341 1 61.4638195379 12.0988292741 1.06943875117
6861 1 64.5010457327 9.25146252199 3.72507263754
6863 1 64.3268431109 9.24677109378 0.895890148027
7372 1 62.9794850176 10.6762959763 2.40149156106
7405 1 65.8438621759 10.6757738435 2.21966820627
7371 1 64.495134313 12.1074187886 3.72727316617
7373 1 64.3212334009 12.10119934 0.890912043264
6894 1 67.3727865678 9.24650464187 3.53380596368
6896 1 67.2027474964 9.23218181095 0.730310967558
7438 1 68.6757788172 10.6968229404 2.02048164275
7404 1 67.3420457633 12.1207553215 3.54380687087
7406 1 67.1783234185 12.1094524068 0.712270144348
6927 2 70.0607436895 9.40861263371 3.38548882628
6959 2 73.1919755456 9.27261637751 3.18251288726
7470 1 71.5496664981 10.6588475828 1.88368614259
6864 1 70.0375956007 9.2484814391 0.566528673976
6897 1 72.8655699006 9.23289695826 0.408582431755
7437 1 70.2073545595 12.1029012824 3.36726749751
7469 1 73.0634023937 12.0896337481 3.19127353753
7374 1 70.0489541255 12.0984713336 0.547487804498
7407 1 72.8852717816 12.0848827365 0.377299283082
6991 1 75.9243551684 9.2503318582 3.02551853746
7502 1 74.4205973196 10.6866931741 1.67747060822
6929 1 75.7507289393 9.24473484742 0.195235795487
7501 1 75.927531833 12.0979540534 3.02408233311
7439 1 75.7540760844 12.0926685455 0.181333172113
7023 1 78.7946900626 9.2465549224 2.87327920928
7534 1 77.272294937 10.6692381575 1.52346308381
7566 1 80.1336705742 10.6680288031 1.35891030138
7533 1 78.7830638257 12.0918477411 2.86632436376
6961 1 78.6182477231 9.2481526861 0.0172800382046
7055 1 81.6305719646 9.24516359681 2.75523089073
7598 1 82.9330490316 10.6933686702 1.24509210244
7565 1 81.62344091 12.1017842606 2.71973605477
7087 1 84.4792738799 9.18837758462 2.58250610353
7597 1 84.4644568438 12.1303820173 2.567331506
7630 1 85.6998864277 10.5982739944 1.18638113282
8139 1 87.3904907225 11.7439685571 2.34467564269
7568 1 87.7123297451 9.70072112259 0.0924810353918
7119 1 87.6324245011 9.24647137431 2.38043150892
1538 1 91.262688112 8.76815595522 0.594066971749
7139 1 89.5645676874 11.0458287792 1.33885552146
6627 2 90.213866091 9.16238352503 2.79441289313
2589 1 1.71256854514 13.5517208822 1.00622788431
2557 1 2.71678892696 14.9552718673 2.58918181426
2080 1 4.22437840098 13.514752873 1.22091097645
2112 1 7.05139378454 13.5191560744 1.4025653064
2621 1 5.52449134011 14.95192782 2.74863722268
2144 1 9.9178653984 13.53587236 1.52986032893
2653 1 8.40233404066 14.969044848 2.89248303108
2655 1 8.61457698935 14.9423554438 0.0940063578847
2176 1 12.7351459717 13.5637499843 1.63991925164
2685 1 11.2531813693 14.9768837747 3.02252183477
2687 1 11.3650504179 15.0104902984 0.135576672135
2717 1 14.0883548592 14.9833934606 3.14981681132
2719 1 14.2372226676 14.9930050951 0.296157584663
2208 1 15.5899763557 13.560861357 1.80125832493
2751 1 17.0990775917 14.9889761431 0.463122972616
2749 1 16.9376829861 14.9857979263 3.31011640352
2240 1 18.4445238819 13.5606453292 1.96941964548
2272 1 21.2952605755 13.5619096452 2.13860735524
2783 1 19.9578980527 14.9919707945 0.634769346486
2781 1 19.789893682 14.9912328827 3.47657109763
2304 1 24.1330965845 13.561250289 2.30251081905
2815 1 22.8046094095 14.9942587739 0.798544959994
2813 1 22.6343339831 15.0032633173 3.64292481272
2845 1 25.447769564 15.0072486565 3.80917455986
2847 1 25.6425042636 14.9960945738 0.96424532244
2336 1 26.9669950387 13.5661530491 2.47188127727
2879 1 28.4845667442 14.9953590778 1.13292503832
2368 1 29.8026262531 13.5658736066 2.64180196619
2400 1 32.616664963 13.5722111741 2.8219543899
2911 1 31.3323271479 14.9871335516 1.29318636126
2432 1 35.4174442144 13.5595990045 2.97965375475
2434 1 35.7641305745 13.4420952466 0.177859725905
2943 1 34.1938309506 14.9623408735 1.44914641198
2975 1 37.0046649876 15.036403602 1.59468415955
3009 1 39.8059049922 14.3332217237 1.687320775
3005 2 37.9098142153 13.7000367915 3.14487949249
2017 1 41.2482580797 12.3708343191 1.65400087978
3040 2 43.6445645131 15.3802085635 1.36527669011
2494 2 40.7489229433 15.8084884353 3.09646172575
3519 1 41.4223581818 15.881955744 0.561688748675
3039 1 43.7179238487 13.4907463803 3.04957032811
7180 2 47.3836576347 12.2683363912 1.44618196503
7689 1 46.2099148151 13.3932675042 3.34408066044
7690 1 47.4896010749 14.6700373957 1.65363538783
7691 1 45.3237847695 13.5709713358 0.524482744985
8199 2 46.573117325 15.9501703487 3.11577164037
3042 1 45.8386012543 16.2139640964 0.621421520211
7722 1 48.8983637432 13.3964771467 3.22071282711
7723 1 50.1832991113 14.8726949928 1.71139690741
8169 1 48.7908560403 16.2558213954 0.360161213059
7659 1 48.7547975791 13.5170469851 0.143769090691
8232 1 48.9429009887 16.2845021685 3.24764867948
7754 1 51.6377449057 13.470511941 3.06172143772
7755 1 52.9369710739 14.9251502775 1.53458987102
7786 1 54.4405791491 13.506343678 2.90069385978
7692 1 51.4329576609 13.489668239 0.138801385029
7724 1 54.2669602827 13.5091195156 0.0190468143973
7787 1 55.7666577071 14.9428144425 1.38871929406
7818 1 57.2719167477 13.5180170284 2.74498583519
7819 1 58.6115578393 14.9503144557 1.2347080675
7850 1 60.1196948578 13.5251310878 2.57838147415
7851 1 61.4631637615 14.9539972789 1.06561597153
7881 1 64.4908114783 14.9651503841 3.72718748678
7882 1 62.9763709865 13.5310248469 2.39956281272
7883 1 64.3181997181 14.9594197714 0.887654864253
7915 1 65.8317345654 13.5385069515 2.21652820871
7914 1 67.3501976547 14.966612854 3.54589197981
7916 1 67.1807877751 14.961574611 0.711152726142
7948 1 68.6964875038 13.5338119107 2.04141186524
7947 1 70.2101143364 14.9641537433 3.36805237148
7979 1 73.0703429175 14.9601289579 3.19379191209
7980 1 71.5555738554 13.5234006362 1.87234961909
7884 1 70.0422074543 14.958398728 0.536657411456
7917 1 72.8961424921 14.9524976766 0.360006695157
8011 1 75.9262820357 14.9515226285 3.02638307164
8012 1 74.4096300581 13.5204348033 1.6921185972
7949 1 75.7473616928 14.9421971798 0.1763155582
8043 1 78.7798019432 14.9476640602 2.86926967258
8044 1 77.2701950268 13.5195825367 1.51610530809
8076 1 80.106089131 13.5026392807 1.34470003235
8075 1 81.5880757021 14.8942686683 2.75507547462
8108 1 82.9336693859 13.5005699269 1.1607184261
8618 1 82.7510588474 16.2447288471 1.26913722661
8107 1 84.3391124187 14.8672735209 2.58156593827
8140 1 85.7051221807 13.4070195005 1.02285863744
8670 2 86.3919745418 15.5160804356 2.08055330835
8138 1 86.1759871143 13.584801897 3.78914739886
7648 2 91.4774205099 12.2485471653 2.31666799181
8648 2 88.2291925822 13.2781964603 0.732358075774
2559 1 91.4133048716 14.6620182224 1.93713118876
8647 2 90.4247642746 16.2011840799 0.668789726007
8158 1 89.2524838942 13.2261581849 3.00184494525
2591 1 1.48472214188 16.3680670515 1.05253305623
3099 1 2.65393592904 17.7919956441 2.62557756654
8669 1 1.4409572334 19.1993448665 1.08740109721
2590 1 4.21388832146 16.4020077353 1.2585754738
2622 1 7.05976188025 16.3816753567 1.47713567636
3100 1 4.2130179673 19.2134982562 1.30422887353
3131 1 5.5216929228 17.7963754267 2.77708621365
3132 1 7.05686857481 19.2730402082 1.50556962924
3133 1 5.73871665805 17.8313283242 0.0537507534724
2654 1 9.91502173295 16.4149541006 1.57801349462
3163 1 8.39583508278 17.8435640817 2.93994697067
3164 1 9.91419029333 19.2633885528 1.59366817695
3165 1 8.55565687492 17.8393953205 0.224845791277
2686 1 12.7327021996 16.4142391103 1.64871370329
3195 1 11.270377651 17.8205214183 3.02362148853
3196 1 12.7289579678 19.2588901319 1.65319755337
3197 1 11.3539535579 17.8425459957 0.148430803719
3227 1 14.0863812746 17.8363663362 3.15482592724
3229 1 14.2338605614 17.8382070746 0.299385456004
2718 1 15.5887072125 16.412806077 1.80447544756
3228 1 15.5861953118 19.2607914178 1.80495299386
3261 1 17.0968399077 17.8370730888 0.462705141875
3259 1 16.9367966694 17.8379098294 3.31162324581
2750 1 18.4469947073 16.4163096806 1.97152661628
2782 1 21.3090345001 16.4323622182 2.14497215604
3260 1 18.4432067732 19.2618330195 1.96922609647
3292 1 21.3115470321 19.2633142758 2.13607972764
3293 1 19.9583587743 17.8410562112 0.631668503693
3291 1 19.7984597013 17.8491236087 3.47650416924
2814 1 24.1334381567 16.4384085601 2.30137034142
3324 2 24.1462052304 19.2665382717 2.16017977288
3325 1 22.792982246 17.8305558613 0.777969553507
3323 1 22.6502523842 17.8678048843 3.64201559095
3355 1 25.4326750609 17.8717274506 3.80626349451
3357 1 25.6596243572 17.832553192 0.943617831071
2846 1 26.9547454744 16.4372766955 2.47626311092
3356 1 26.9547170941 19.2688800499 2.46563131626
3389 1 28.488498917 17.8478155735 1.1286692463
2878 1 29.8077226233 16.422567201 2.63963755512
2910 1 32.6427530555 16.4016478444 2.81087394281
3388 1 29.818996974 19.2669629428 2.63768126494
3420 1 32.6524457163 19.2629515065 2.81568202638
3421 1 31.3433285005 17.8385067936 1.29420309161
2944 1 35.7370770924 16.3936709893 0.103281963496
2942 1 35.3990287571 16.3980961852 3.00270052433
3452 1 35.4567990907 19.2423916918 3.03704564849
3453 1 34.1663631238 17.8274735885 1.46818142515
3454 1 35.7187182996 19.2244257076 0.149827771419
2974 1 38.2416007143 16.3275656973 3.19897940891
3485 1 36.910326927 17.7852375575 1.7138697788
3484 1 38.192210557 19.1555732926 3.30054983005
3486 1 38.4443859698 19.1790822639 0.418171850301
2976 1 38.6000200009 16.4756356259 0.408977822189
3517 2 40.4422408202 18.0846212606 0.958844067447
3007 1 42.4246364911 17.4840468247 1.94282614946
3516 1 41.4606613374 19.717424406 2.60610523428
3550 1 43.8192689634 19.4274660354 1.75043695077
2527 1 42.0120587857 19.5173824489 0.0980380624875
2496 1 44.7198026959 17.2923158889 2.54977800981
8200 1 47.4395655859 17.6950980521 1.96473609098
8709 1 45.8163772624 19.439644208 3.31199424088
8201 1 45.8753989827 18.8880849892 0.752776330906
8233 1 50.1811008623 17.7576382326 1.76447614525
8742 1 48.8328383295 19.1699301992 3.29198618038
8679 1 48.7154435385 19.1406032364 0.453945119652
8202 1 51.425788978 16.3610427363 0.173477914333
8264 1 51.6543168151 16.3384531119 3.08946539565
8265 1 52.9320536714 17.7948851728 1.55417610749
8296 1 54.4387904005 16.3661952659 2.90669064851
8774 1 51.6426762192 19.2185464038 3.10866366684
8806 1 54.4321049195 19.2384559676 2.91078342797
8712 1 51.405376417 19.21969393 0.200594412762
8744 1 54.2480822662 19.237795629 0.0489596628746
8234 1 54.2563149129 16.3731615081 0.0359499892983
8297 1 55.7615227319 17.8075133526 1.39604772416
8328 1 57.2708721788 16.3779202349 2.7433238792
8838 1 57.2678727765 19.2441599495 2.74146870985
8329 1 58.6100828639 17.8129198166 1.23572426658
8360 1 60.11975082 16.3835815161 2.57467459463
8361 1 61.4644121413 17.8159818361 1.0657948717
8870 1 60.1191098649 19.24669829 2.57129935501
8391 1 64.4907476804 17.8213826465 3.72512452029
8392 1 62.9751030631 16.3883901631 2.39738812207
8393 1 64.320997177 17.8182495748 0.888420219257
8425 1 65.8340005253 16.3913550386 2.21686476592
8902 1 62.9753586056 19.2489742857 2.39505068959
8935 1 65.8339521302 19.2493479313 2.21582975418
8424 1 67.3494841494 17.8213371602 3.54491947734
8426 1 67.1798398671 17.8187567429 0.709304786211
8458 1 68.6945244959 16.3908853803 2.03849165773
8968 1 68.6929008033 19.2470953906 2.03634971686
8457 1 70.2084699183 17.8186993604 3.36652648772
8489 1 73.0719186454 17.8155597042 3.19357069861
8490 1 71.5554923006 16.3881057443 1.86280943585
9000 1 71.552528144 19.2408221567 1.85831305965
8394 1 70.0385610383 17.8157948238 0.530599506164
8427 1 72.8970029253 17.8102483433 0.352370465093
8521 1 75.9369044572 17.8097248871 3.0325387027
8522 1 74.415084024 16.3824368797 1.68892877058
9032 1 74.415185784 19.2334676191 1.68577469695
8459 1 75.7468617306 17.7988365555 0.170078779243
8553 1 78.7597411561 17.7787937367 2.86469083124
8554 1 77.258881824 16.3648052326 1.51641112196
8586 1 80.099737181 16.3543208463 1.3472579333
9064 1 77.2626122433 19.217535741 1.51323866934
9096 1 80.0388748196 19.1456916191 1.2955614793
8585 1 81.5850841673 17.794845337 2.72039613699
9128 1 82.8763927514 19.1336120534 1.05989339204
8555 2 84.0700682781 17.4431349498 0.00966630801077
8617 1 84.6059659693 17.6249794118 2.47252944287
9180 1 87.2965875243 17.7504599595 2.36800695528
10179 1 87.551995783 20.1999770828 2.36326001427
9160 1 84.490408056 20.2875664628 2.28093991382
9179 1 91.3711932457 17.6767700379 2.4053136163
9158 2 89.198946642 17.0168136649 3.49283899471
9097 2 90.4763348569 19.248418178 0.830254272859
8649 1 89.6173564585 19.3820165702 3.46846803701
3609 1 2.65585161106 20.6475084441 2.61571642512
3578 1 1.51515619775 22.1311940557 1.00724677663
4119 1 2.6503921956 23.5438111753 2.61235646172
3641 1 5.50740376559 20.6826777779 2.77534674787
3610 1 4.21669839995 22.09106003 1.29445480055
3642 1 7.0562283111 22.106384281 1.46663314627
4151 1 5.51329083279 23.547961079 2.76242961112
3673 1 8.39847298034 20.6701739103 2.93358882783
3674 1 9.89714470381 22.1143855273 1.55873970937
4183 1 8.38721649239 23.5351350624 2.90119640414
3675 1 8.60255363016 20.7193663856 0.118314842644
4185 1 8.53424049495 23.5143509877 0.0208235580053
3705 1 11.2645611734 20.704311818 3.01750451721
3707 1 11.3532076772 20.6629618967 0.144223593616
3737 1 14.082847146 20.6853405726 3.15376632582
3739 1 14.2307871834 20.6803963992 0.298753383224
3706 1 12.7264943687 22.1052782633 1.64593005285
4215 1 11.2381605401 23.5417056824 3.01761281679
4217 1 11.3704910322 23.5256639174 0.14600561868
4247 1 14.080276497 23.5371466173 3.1494928499
4249 1 14.2334945416 23.5342056399 0.300032824137
3771 1 17.0940876836 20.6844557363 0.462552700034
3769 1 16.9341535853 20.6860723321 3.31101332797
3738 1 15.5834070079 22.1088312623 1.80380026637
4281 1 17.0930332332 23.5343117367 0.463898873481