ITEM: TIMESTEP
4000
ITEM: NUMBER OF ATOMS
10200
ITEM: BOX BOUNDS pp pp pp
0.0 91.5382635842
0.0 28.55
0.0 45.7691317921
ITEM: ATOMS id type x y z
8 1 1.5821790948 2.0670193503 1.05872816231
549 1 2.77683095835 3.5659271875 2.50985839194
39 1 2.79787441082 0.717554006864 2.54489355771
7 1 1.10001328113 2.18882356026 3.71727739357
40 1 4.27911388161 2.11328602686 1.16603824191
72 1 7.07308710408 2.1104335422 1.32345326202
581 1 5.55571638132 3.5443950992 2.68655514931
71 1 5.56166531948 0.681841374926 2.68444435202
104 1 9.90064093759 2.10322647638 1.46741085637
613 1 8.39575520703 3.53738273062 2.82670262259
103 1 8.39329368387 0.679592902346 2.82505279477
136 1 12.7509800857 2.10519463229 1.62627589125
645 1 11.2426256437 3.53298366221 2.97271800402
647 1 11.4118432799 3.5301205395 0.120273072636
677 1 14.0961425519 3.53175185771 3.13311215894
679 1 14.2619536982 3.53251927181 0.284899599039
137 1 11.4093001558 0.676740826706 0.117503781945
167 1 14.0936414104 0.678967796034 3.12991332655
169 1 14.2604633605 0.679050605647 0.28269218535
135 1 11.2404801202 0.679066176781 2.97071367607
168 1 15.6047796407 2.10542943745 1.79160927286
711 1 17.1122907242 3.53497159154 0.450598861432
709 1 16.9499123167 3.52847188202 3.30298464083
199 1 16.9506300502 0.676296566224 3.29797980632
201 1 17.1112883879 0.680569581681 0.447100024219
200 1 18.4531456046 2.1072609654 1.95556558171
232 1 21.2963299415 2.10916246573 2.12312529948
743 1 19.9616666995 3.53811053288 0.618049953646
741 1 19.7923297267 3.53002362191 3.46989295327
231 1 19.7786900836 0.691139724017 3.44644778595
233 1 19.9616135158 0.681915970654 0.613809565346
264 1 24.1362693846 2.11219645417 2.29675356475
775 1 22.8081051675 3.54049987014 0.788906550543
773 1 22.6251253333 3.53330640109 3.64226753692
265 1 22.8062926861 0.684406837777 0.783431283864
263 1 22.6363264626 0.693814009079 3.61793202233
295 1 25.4559853642 0.681933441581 3.80862820206
297 1 25.6516715378 0.687564535201 0.9554894685
807 1 25.6505644798 3.54199982732 0.960971571871
296 1 26.974270229 2.11514481241 2.47101792979
839 1 28.4889055234 3.54754848006 1.13352467345
329 1 28.4947325736 0.692092946924 1.12909564057
328 1 29.8174953901 2.12381738603 2.64100825346
360 1 32.661196888 2.13124769298 2.81216563947
871 1 31.3358835117 3.55374702548 1.30285240956
361 1 31.3365217437 0.698935788678 1.299178521
392 1 35.4967013067 2.13101244885 2.9847666889
394 1 35.6993408113 2.11878392251 0.114981501501
903 1 34.1853266045 3.55614002668 1.46878216926
393 1 34.1747294173 0.701263313902 1.46656972411
426 1 38.5407187452 2.07712038804 0.26875494305
935 1 37.0220894328 3.54175444013 1.62236384718
967 1 39.722385722 3.49982830664 1.7788850344
424 1 38.3217167611 2.09077402021 3.14713298693
457 1 39.8396535963 0.561461621745 1.78006003017
425 1 37.0030137957 0.686187753752 1.63265419987
999 2 43.3877324083 1.47710574085 3.270780774
456 1 41.0169835266 2.04714954468 3.32687344011
1510 2 41.9631113483 3.60491458885 1.69722539635
458 1 41.2348224088 1.96994446748 0.383900285271
1000 2 44.8297689882 3.18168258317 0.991411787668
5650 1 47.1799433708 3.45201758166 1.92402677138
5649 2 46.6253743509 1.53937537024 3.23409644967
489 1 44.8042572774 0.589986927994 1.70611803687
5140 1 47.3799170118 0.430523287817 1.38383207346
5173 1 50.1289229382 0.725425626742 1.69347615608
5682 1 48.856632893 2.07091899875 3.19908727609
5619 1 48.4684018242 2.31423494684 0.14176200098
5683 1 50.0774287579 3.50266767251 1.71294822949
5205 1 52.9562222119 0.726882613485 1.57522247629
5714 1 51.6181467015 2.13054080126 3.09368786785
5746 1 54.4554251393 2.15134564058 2.93435230112
5652 1 51.4027787418 2.10746538092 0.179133483478
5715 1 52.9227086942 3.55319422468 1.56684489103
5684 1 54.2749506731 2.14270731328 0.0609788093567
5237 1 55.7939848323 0.722673457379 1.41977670059
5778 1 57.3009682418 2.15003872108 2.76678933662
5747 1 55.7825862487 3.57234876991 1.41815358221
5269 1 58.6434327466 0.721428760351 1.25473150509
5301 1 61.4968560411 0.72059197831 1.0816748249
5810 1 60.1543689193 2.14854718433 2.5934196287
5779 1 58.6392526658 3.57564057979 1.25542061068
5811 1 61.4953632072 3.57577099108 1.0829244803
5331 1 64.5211219327 0.718722734898 3.74896206279
5333 1 64.3492363956 0.719872562648 0.903333698225
5842 1 63.0081435632 2.14749304732 2.41617496697
5841 1 64.5204940869 3.57441988282 3.74991641678
5843 1 64.3487089928 3.57555513703 0.904995794459
5875 1 65.8585135262 2.14714125119 2.23616581822
5364 1 67.3678014229 0.718584587082 3.56754966611
5366 1 67.1993516497 0.720082015931 0.722592254706
5908 1 68.7057091647 2.14784677948 2.05554715231
5874 1 67.367157014 3.57470287272 3.56963690718
5876 1 67.198605535 3.57587233832 0.724874029655
5397 1 70.2116717656 0.719383044769 3.3863874935
5429 1 73.0555857044 0.721647428584 3.20787872038
5940 1 71.55323676 2.15085613891 1.87807866209
5334 1 70.0492916975 0.722544138082 0.543319400161
5367 1 72.9047362495 0.730607819584 0.371964723962
5907 1 70.2100343803 3.57614070981 3.38947255119
5939 1 73.0537158452 3.58037159843 3.21230822796
5844 1 70.0473105655 3.57731403573 0.546469069127
5877 1 72.9020340101 3.58048410786 0.376636052483
5461 1 75.931034134 0.738477386583 3.05843963977
5972 1 74.4138049096 2.15833536011 1.71650613634
5399 1 75.7600650529 0.748116512088 0.207010049587
5971 1 75.9296078575 3.58195891647 3.06489017019
5909 1 75.7606734832 3.58638085497 0.215224189486
5493 1 78.792200565 0.757626696284 2.89976116572
6004 1 77.2817717499 2.17372645882 1.56385646091
6036 1 80.1244629504 2.17752408005 1.39242648288
6003 1 78.8128699385 3.58195496001 2.91411379447
5431 1 78.6014352867 0.771178823723 0.0406033455768
5941 1 78.6297334165 3.59502519593 0.060936425106
6068 1 82.9819975405 2.1263003402 1.32830738477
5525 2 81.5075967169 0.558561042793 2.66850641741
6035 2 81.5703318604 3.72513222195 2.72030755771
6610 2 85.5069911301 2.46497912393 0.84198736803
5590 1 85.0797917721 0.905268236554 2.43877878889
5527 1 87.2094103346 1.04903768863 0.293922319675
5609 2 90.9053691649 2.33285698785 1.6936515789
6120 1 89.158868388 3.19198225117 0.221091842108
5608 2 89.379066289 0.571389146987 3.46462634379
518 2 1.69033363845 4.95301107011 0.760021006583
1059 1 2.59390203666 6.35186276981 2.48516565925
1028 1 1.23120921976 7.51876280796 0.499807401113
6119 1 91.647464012 4.38793551268 2.3034712843
550 1 4.25916125213 4.96423072811 1.17898662883
582 1 7.06584848376 4.96429548764 1.32437528256
1060 1 4.18381221176 7.78493067397 1.17887462564
1091 1 5.51816266429 6.38536763742 2.68435064027
1092 1 7.04982453555 7.80452059354 1.32781146138
614 1 9.90409772361 4.9598679009 1.47179954518
1123 1 8.38993549198 6.38855152328 2.82712476001
1124 1 9.90164444018 7.81303036676 1.47474835244
646 1 12.7527710243 4.95927239168 1.62883595401
1155 1 11.2436795941 6.38858660119 2.97468980314
1156 1 12.7515281003 7.81654162176 1.62999519073
1157 1 11.4138357132 6.3865562941 0.12401186613
1187 1 14.0953845054 6.3887956571 3.13337608083
1189 1 14.2618273053 6.38791742306 0.286940625439
678 1 15.604970922 4.95959847279 1.7939685327
1188 1 15.6023390288 7.81828255499 1.79302726257
1221 1 17.112029172 6.39027081247 0.4532637034
1219 1 16.9451766513 6.38967397445 3.3002356014
710 1 18.4531360183 4.96195174927 1.96112216053
742 1 21.2986946499 4.96626928036 2.13182434934
1220 1 18.4522233781 7.8205080053 1.96110684202
1252 1 21.3007263806 7.82265400967 2.13407766029
1253 1 19.9620373911 6.39271487617 0.622457697584
1251 1 19.79010678 6.39322090939 3.47008267292
774 1 24.1399807588 4.96901882995 2.30703279546
1284 1 24.1475584278 7.82348667259 2.31296750056
1285 1 22.8099424299 6.39486546971 0.794661821117
1283 1 22.6356244837 6.39822605986 3.64660452954
1315 1 25.4621367663 6.39088584202 3.81396653023
1317 1 25.6496820077 6.39648629112 0.96742942398
806 1 26.9712675447 4.97447097608 2.48150084765
1316 1 26.9730115585 7.82299253189 2.47959098827
1349 1 28.484311639 6.39919978621 1.1393537459
838 1 29.8096941041 4.97757930563 2.64894493527
870 1 32.6578802282 4.98136037197 2.81976813321
1348 1 29.7996897339 7.82583050094 2.65653695623
1380 1 32.6474104094 7.83014232009 2.83275648789
1381 1 31.3313146803 6.40264849 1.31075432956
902 1 35.5117761059 4.98849510895 2.98512913065
904 1 35.7260041749 4.98828580045 0.140074073034
1412 1 35.4543985058 7.83724504639 3.03182487632
1413 1 34.1863603848 6.40307265493 1.48626169987
1414 1 35.7282272976 7.79876281733 0.161417739143
1445 1 37.0790253785 6.42167036155 1.68891018395
934 1 38.3180336549 4.89977968372 3.16305999925
1444 2 37.9471208889 8.06015417074 3.51522110061
1477 2 39.8033221938 6.24394392919 1.79302648568
936 1 38.5427145374 4.95376813923 0.227108268674
1446 1 38.5653449464 7.68489564282 0.16437519939
966 1 41.124861942 4.89714571806 3.31681403898
968 1 41.2816699173 5.03652501407 0.23980020111
1986 1 41.4390797448 7.44850655762 0.305174481644
1509 2 43.6132770076 5.68477493309 3.11822778621
6159 1 45.9722420366 5.18017380097 3.59285590248
6160 1 47.1375944881 6.2726739479 1.74529359161
6669 1 46.3429109843 7.87571014227 3.43575921398
6671 1 45.7035452135 8.11415223662 0.7576637693
6161 2 45.0989858036 6.140773218 0.00969229223296
6192 1 48.7137614296 4.94539991161 3.21088216983
6193 1 50.0684880489 6.38976315868 1.73981478468
6129 1 48.6386877326 4.90484414866 0.382945170201
6702 1 48.817729035 7.84181581716 3.24137684127
6639 1 48.5552669384 7.83574994458 0.422870501294
6224 1 51.5876282695 4.97363501284 3.08504682203
6225 1 52.9236664222 6.41091746688 1.58389569476
6256 1 54.4379111436 4.99095707898 2.93166775659
6162 1 51.409327508 4.98572318358 0.226566677551
6734 1 51.6061265146 7.82886349178 3.10400259116
6766 1 54.4385852877 7.84364187084 2.94018117396
6672 1 51.3910254352 7.81423389494 0.222353412356
6194 1 54.2610018165 4.99243318595 0.0707848257458
6704 1 54.2576279152 7.83839658348 0.0755270548614
6257 1 55.7760793519 6.42102177256 1.42411797309
6288 1 57.2943359086 5.00058353587 2.76716982138
6798 1 57.2904902855 7.8515685636 2.77016391819
6289 1 58.6357320821 6.42766298774 1.2580991031
6320 1 60.1519743298 5.00269225001 2.59437399991
6321 1 61.4943620036 6.42999689454 1.08461692846
6830 1 60.1498298789 7.85607189026 2.59558269298
6351 1 64.5200964305 6.43131652625 3.75010321544
6352 1 63.0075198958 5.00298020694 2.41730563281
6353 1 64.3491806169 6.43113602533 0.906467678947
6385 1 65.8586314397 5.00343826362 2.23774561585
6862 1 63.0071962018 7.85833050828 2.41788429552
6895 1 65.8599329808 7.86009660273 2.23823912779
6384 1 67.3678848908 6.43254758495 3.57019529085
6386 1 67.1998873714 6.43210029275 0.726430553827
6418 1 68.7058027909 5.00447880347 2.05772927035
6928 1 68.7087600839 7.86146990271 2.05834074853
6417 1 70.2120568258 6.43415214162 3.39054174445
6449 1 73.0581995501 6.43581207454 3.21475061515
6450 1 71.5530482469 5.00623561676 1.88075700167
6354 1 70.0488806092 6.43248399966 0.547985630251
6387 1 72.9033480878 6.42974819255 0.377381704585
6960 1 71.5576766656 7.86083822651 1.88141879383
6481 1 75.9346552894 6.42139893536 3.06794536084
6482 1 74.4142837485 5.00548730996 1.71983752894
6419 1 75.7598030105 6.4230906976 0.213527472552
6992 1 74.417544427 7.85125414555 1.71861681586
6513 1 78.7887890428 6.42838701391 2.91735893222
6514 1 77.2826436474 5.00249253529 1.5679567805
6546 1 80.1251224726 5.04615453418 1.39510062602
7024 1 77.2692421624 7.84579981899 1.55868681271
7056 1 80.1104100992 7.85537496314 1.39920594935
6451 1 78.6085831963 6.4271171896 0.0473111168741
6545 1 81.6509976121 6.49898021017 2.76365134475
6578 1 83.0546739434 5.08257825973 1.35016467614
7088 1 82.9692734383 7.86956561755 1.25870434038
6608 2 85.0130563098 4.72811839913 3.10428865123
6577 1 84.7638643859 6.84832148876 2.56589627095
6609 1 85.8627307921 4.90935892527 0.872940015208
7138 1 86.9971280722 5.66861149615 3.59196652087
7120 1 85.7524266225 7.98816877534 0.74902366142
7119 2 87.4070631841 7.65233661598 2.31072659012
7140 2 90.4594235439 6.52787471183 1.74261984229
6100 2 88.0451771973 4.26606922866 1.99649154058
6630 1 89.3174213016 7.4771110384 3.74211410093
1569 1 2.61914057363 9.10781819799 2.46751672876
1539 1 1.45420603197 10.4724178334 0.978916864141
2079 1 2.64179872172 12.0005658399 2.51122120773
1538 1 0.0340030989059 8.71170717604 2.14787013735
1570 1 4.18202888063 10.602850579 1.17154687173
1601 1 5.50852513266 9.21207847037 2.68053168797
1602 1 7.04224178668 10.6519736601 1.3270777575
2111 1 5.51230351192 12.0694206818 2.65897525677
1633 1 8.38136163479 9.23528041072 2.82399461495
1634 1 9.89217597094 10.6701204994 1.47545715246
2143 1 8.37498253702 12.0915447025 2.81452524339
1665 1 11.2389827075 9.24534119435 2.97300105599
1666 1 12.7442267566 10.6762871329 1.62927154305
1667 1 11.4091138326 9.243218205 0.127091857472
1697 1 14.0918998745 9.2482402088 3.13168911648
1699 1 14.2584423283 9.24644186199 0.287783889333
2175 1 11.2242107485 12.1091363075 2.96618034367
2177 1 11.3962734483 12.1039353377 0.127824828985
2207 1 14.0876502587 12.1057070868 3.12842632344
2209 1 14.2540640798 12.1033776394 0.28749058323
1698 1 15.5998130706 10.6762464712 1.79180507512
1731 1 17.1111503797 9.24764708605 0.453907192342
2241 1 17.1105896816 12.1035364216 0.453665772253
1729 1 16.9430266926 9.24922893514 3.29848861085
2239 1 16.942529502 12.1054984177 3.29689962539
1730 1 18.453022544 10.6776719032 1.96130553738
1762 1 21.3047176224 10.6797534749 2.13634391542
1763 1 19.9633714828 9.24952330351 0.624959509351
2273 1 19.9650926561 12.1062230468 0.626687492762
1761 1 19.791840322 9.25127136762 3.47040596632
2271 1 19.7946024625 12.1078959487 3.47025706882
1794 1 24.150886938 10.6805482101 2.31327754811
1795 1 22.8120387371 9.25047200996 0.799048018529
2305 1 22.8166654264 12.1109832185 0.803400964091
1793 1 22.641094884 9.25071769162 3.64823484865
2303 1 22.6457160713 12.1125969233 3.64649293594
1827 1 25.6506657066 9.24904640652 0.969658268766
2337 1 25.6536169489 12.1130202499 0.969658733543
1826 1 26.9735922625 10.6758284108 2.48230188103
1859 1 28.4826078614 9.24872370797 1.14000651905
2369 1 28.4809468982 12.1129197411 1.13760449167
1858 1 29.7962346184 10.6798910374 2.6511032916
1890 1 32.6314558066 10.6775847457 2.82323959306
1891 1 31.3236787438 9.24806551078 1.31127451906
2401 1 31.3160008926 12.1093994719 1.30789329327
1922 1 35.4287133244 10.7088075742 2.99532088202
1923 1 34.172498365 9.24199155515 1.48619103982
1924 1 35.7067002792 10.6550661371 0.160738462205
2433 1 34.1456202172 12.1077469054 1.46590099478
1955 1 37.0017929109 9.21543332321 1.70051673878
1954 1 38.3736931171 10.7587780153 3.11673746451
2465 1 36.9359995426 12.0932294779 1.66960192007
1956 1 38.4541642648 10.6322543759 0.439890507394
1987 1 39.6392090056 8.75211909062 2.09218969659
2019 2 43.1061548862 8.29905969777 1.46497527054
1988 2 40.5493427828 10.758300496 1.3295023874
2530 2 43.6473248383 11.9215551863 0.57463530588
2529 2 43.3910242358 10.7824621842 3.76770980452
2020 1 44.6759406096 9.18111188044 2.66017820087
6670 1 47.3618739671 9.35980503722 1.9216314331
7179 1 46.0262486881 10.8871555295 3.37962897198
7181 1 45.7872738985 10.7640529856 0.665959476645
7180 2 47.426578505 12.1562411894 1.87906578008
6703 1 50.1312101122 9.26355539907 1.75158093288
7212 1 48.870583428 10.7353448599 3.27348265036
7149 1 48.6761903673 10.6688106275 0.401251106228
7213 1 50.1588230076 12.1376132417 1.74950451443
6735 1 52.9275145664 9.2587831627 1.58311596602
7244 1 51.6315915649 10.7041854113 3.10679503548
7276 1 54.4435623868 10.6985477016 2.94063423939
7182 1 51.42544464 10.6839265114 0.223869533517
7245 1 52.9474982374 12.1257291312 1.58548785585
7214 1 54.2619670162 10.6891534094 0.0746964172212
6767 1 55.7750757023 9.27117529641 1.42599018868
7308 1 57.2907613933 10.7040593462 2.77072037857
7277 1 55.7803373529 12.125806331 1.42572799603
6799 1 58.6335959125 9.27859268152 1.25935871485
6831 1 61.4937056973 9.28311766533 1.08533412757
7340 1 60.149127512 10.7088599547 2.59569425987
7309 1 58.6347474008 12.1306156528 1.25902122889
7341 1 61.4944089588 12.1354843671 1.08501627984
6861 1 64.5205276586 9.2878921192 3.74967230252
6863 1 64.350362246 9.28607938089 0.906946134289
7372 1 63.0076103785 10.7126378387 2.41767372437
7405 1 65.862341821 10.7156994497 2.23794678349
7371 1 64.5219976301 12.1426168651 3.7491773529
7373 1 64.352137672 12.1398671585 0.906591227497
6894 1 67.3706523627 9.28996599062 3.5698297348
6896 1 67.2030010997 9.28804226137 0.726818545847
7438 1 68.713980424 10.7173563824 2.05821227156
7404 1 67.3746459612 12.1452255213 3.5693964667
7406 1 67.206831778 12.1428465715 0.726532160277
6927 1 70.2179980543 9.29091009673 3.39072584915
6959 1 73.0674443817 9.28779421843 3.21668733142
7470 1 71.565578502 10.715053636 1.88155089354
6864 1 70.0539266329 9.28765938691 0.54803602136
6897 1 72.9077529986 9.28049543736 0.375425450205
7437 1 70.2260383824 12.1452948396 3.39117310341
7469 1 73.0793098127 12.1384397608 3.21993004059
7374 1 70.060131601 12.1427023381 0.547787628906
7407 1 72.9126994657 12.1364428223 0.373349310445
6991 1 75.9304782622 9.27093982513 3.06265990876
7502 1 74.4192080471 10.7033509924 1.71510949143
6929 1 75.7558858317 9.27073142647 0.206726634867
7501 1 75.9247598439 12.127596132 3.05789366054
7439 1 75.7524629833 12.1262109729 0.20185585624
7023 1 78.7782938146 9.26672788905 2.91209420996
7534 1 77.2617943221 10.6941917946 1.55495789037
7566 1 80.0982151732 10.689548908 1.40142019268
7533 1 78.7629394093 12.1212321871 2.90741931279
7471 1 78.5809034377 12.1154769272 0.0377515968395
6961 1 78.5930086853 9.26830567517 0.0404931494489
7055 1 81.6246533445 9.26500805022 2.77660516652
7598 1 82.8547572036 10.7089442926 1.2875669611
7565 1 81.5639787401 12.1396876864 2.77933264762
7597 1 84.3456824964 12.1997080814 2.59063479452
7087 1 84.4619879769 9.36846870103 2.61677018245
7630 1 85.6360773591 10.88012342 1.02145340361
7568 2 87.7572602357 10.7099153661 1.72167504105
7628 1 86.0614252568 10.9673486737 3.72809053964
7137 1 89.3171685342 8.81052590057 1.33951685921
7139 2 90.8284755856 10.8386253527 0.780185814609
7648 2 90.163370495 9.7641951227 3.54207160947
2589 2 1.54201896577 13.4128426435 1.05472650512
2557 1 2.60362780891 14.9961351826 2.45868148621
2047 1 0.884829995765 13.309357579 3.70060633724
2080 1 4.18473216202 13.4834163765 1.1792597829
2112 1 7.03756956647 13.5006403945 1.31080858702
2621 1 5.51607458145 14.9062079005 2.65063379975
2144 1 9.8844607493 13.5236312505 1.4616622169
2653 2 8.36894105599 14.9420834204 2.8090052363
2176 1 12.7358616163 13.5320243492 1.62663287348
2685 1 11.2223231979 14.953351033 2.96256782204
2687 1 11.3845881853 14.9539794663 0.126915849052
2717 1 14.0862317673 14.9576163681 3.12574539627
2719 1 14.2515937635 14.9562771862 0.285932782916
2208 1 15.5982948661 13.5310610282 1.78980341271
2751 1 17.1093184083 14.9582304321 0.452006200238
2749 1 16.9412751912 14.9597001113 3.29472500873
2240 1 18.4529228033 13.5328427911 1.96032802748
2272 1 21.307638201 13.5387645256 2.13690872955
2783 1 19.963631746 14.9601576591 0.623899788805
2781 1 19.7934818541 14.9624745881 3.46830025729
2304 1 24.1618313941 13.5543429602 2.3160033156
2815 1 22.8178031762 14.9659211538 0.798844995465
2813 1 22.6542240663 14.9766193165 3.64439045863
2847 1 25.6408771863 14.9535967467 0.947141357282
2336 1 26.9746035872 13.5587598763 2.47328780806
2879 1 28.4981134739 14.9527904488 1.11522786596
2368 1 29.7854518336 13.5562086434 2.65086682834
2400 1 32.6209831349 13.5422327944 2.81756185477
2911 1 31.3184577904 14.9671597412 1.3021578498
2432 1 35.428975386 13.5094168381 3.00359019445
2434 1 35.7088682052 13.5162800102 0.13038821199
2943 1 34.1679147503 14.9522062926 1.4755320736
2975 1 36.9652251449 14.9076123656 1.67122133362
3005 2 38.1452291479 13.48432436 3.19922070465
2498 1 38.5903408944 13.4737956337 0.429024461158
2976 1 38.5543610703 16.2812834078 0.458460019682
2974 1 38.0027025026 16.3082158714 3.29166087766
3008 1 41.6088874352 13.3110418194 0.496856263609
3039 1 43.7495045478 12.9426853291 2.65341556877
2497 2 41.4169392464 13.1907050536 2.98927152586
3009 2 40.8245563096 15.7906742898 1.05902544115
3549 2 43.2546324461 16.2599041158 3.49861695156
3040 1 44.4386500729 15.259108767 1.8474896789
7689 1 46.0614183187 13.5464448549 3.27638867019
7690 1 47.3372126172 15.0326368569 1.89921243729
7691 1 45.6789163817 13.5284641606 0.598751301451
7722 1 48.8683619429 13.6006308827 3.25437536921
7723 1 50.1480689251 15.042979427 1.74365151644
7659 1 48.6977760708 13.6077427836 0.446738411196
7754 1 51.6389616631 13.5808241652 3.09865700061
7755 1 52.9641429919 14.9985526058 1.59141139788
7786 1 54.4556072558 13.5619809608 2.94090519242
7692 1 51.4531415581 13.5644155218 0.239553153876
7724 1 54.2770830433 13.554367156 0.0773898967215
7787 1 55.7909471093 14.9878314697 1.42678961226
7818 1 57.2956686099 13.5594731506 2.77037458395
7819 1 58.6405642237 14.9852388719 1.25906237169
7850 1 60.1513122496 13.56183619 2.59535000296
7851 1 61.4972380918 14.9884210072 1.08451918308
7881 1 64.5237238892 14.9959611966 3.74881084687
7882 1 63.0091528231 13.5658750574 2.41716248282
7883 1 64.3539964436 14.9931709182 0.905872755127
7915 1 65.8649609836 13.5697026857 2.23739031043
7914 1 67.3777889244 14.9987395369 3.56885796226
7916 1 67.2095946371 14.9967803163 0.725966761666
7948 1 68.719155312 13.571633631 2.05805723773
7947 1 70.2315209585 14.9995927887 3.39078442655
7979 1 73.083655466 14.999083561 3.21738092052
7980 1 71.5732266208 13.5695963467 1.88225747729
7884 1 70.0643055641 14.9980598654 0.547774877163
7917 1 72.9156397497 14.9979118368 0.373013111402
8011 1 75.9293142996 14.9977081287 3.05025958845
8012 1 74.4217190273 13.5647847964 1.71192272742
7949 1 75.7577987431 14.9964900544 0.201070609218
8043 1 78.7400281926 14.9743394645 2.89146502784
8044 1 77.2523560762 13.5513264092 1.54471711273
8076 1 80.0732492366 13.551289189 1.39538536866
7981 1 78.5734315695 14.982120664 0.0271435831182
8075 1 81.5632932983 14.9946758433 2.75652850644
8108 1 82.8299911863 13.6067961232 1.26465823084
8618 1 82.9410229004 16.2742098613 1.2128535513
8139 1 87.450640301 12.6899295334 2.53191515858
8107 1 84.4408767869 14.9459817206 2.57638775736
8140 1 85.637650011 13.503798607 1.01145821359
8648 2 86.937935824 14.8780968531 2.47535675132
8650 1 85.8096617588 16.2497774716 0.963855176161
2559 2 90.1518345409 14.9020580594 1.2889751687
8158 2 89.7574566962 12.9161975771 3.52914643535
8160 1 89.4505152628 12.5658297414 1.00671541119
8668 1 90.3876138511 15.2409249806 3.61266934212
3099 2 2.81698870562 17.7233064916 2.42048050017
8669 1 1.36067754506 19.3846390336 1.08685210916
3067 1 1.07310664684 19.3904183315 3.53565315542
2591 1 0.547879293559 16.8297579298 1.76318171377
2590 1 4.27452832647 16.3315781998 1.1395771007
2622 1 7.02500340389 16.3664120564 1.30534796797
3100 1 4.23999603353 19.2492829124 1.14365444779
3131 1 5.52178517665 17.8072116356 2.65104687486
3132 1 7.04064938414 19.230369345 1.31696876357
2654 1 9.87939942286 16.3766535241 1.45938484014
3163 1 8.36499000262 17.7946314271 2.80669200447
3164 1 9.8761410968 19.2235109737 1.46360021604
2686 1 12.7326589927 16.3784831916 1.6248007634
3195 1 11.2158266965 17.7971475024 2.96069482654
3196 1 12.7341006279 19.2330994357 1.62287189888
3197 1 11.3870222555 17.7990324016 0.122461059727
3227 1 14.0823134039 17.8095316146 3.12378263524
3229 1 14.2494135228 17.8090284574 0.284897553912
2718 1 15.596249945 16.3848872294 1.78792950691
3228 1 15.5949993286 19.2395936339 1.78755906567
3261 1 17.1077555248 17.8131335415 0.45061683993
3259 1 16.9391671511 17.8137655143 3.29249288355
2750 1 18.4510184244 16.3868740036 1.95772495684
2782 1 21.3042456151 16.3891581735 2.13194650954
3260 1 18.4500645396 19.2414437273 1.95657305633
3292 1 21.3049092799 19.2379860912 2.13184637414
3293 1 19.9623505219 17.8142987441 0.621602248711
3291 1 19.7910580627 17.8147757808 3.46499212749
2814 1 24.1682211724 16.3923878887 2.3068687837
3324 1 24.1627642602 19.2248523737 2.31353401115
3325 1 22.817375898 17.8117882381 0.796553699805
3323 1 22.6531729397 17.8077954136 3.64176229682
3357 1 25.6428404929 17.8255349717 0.946612816372
2846 2 26.9866025514 16.3912063251 2.33357007742
3356 1 26.9792579373 19.2225750738 2.47383074851
3389 1 28.5001882237 17.8257118629 1.11567764526
2878 1 29.7845464168 16.3918807819 2.64186110488
2910 1 32.638170476 16.3897704094 2.81837319909
3388 1 29.7930515235 19.2241127994 2.65105216781
3420 1 32.6440312697 19.234078267 2.82237982675
3421 1 31.3255610373 17.8094877475 1.3044032888
2942 1 35.455858551 16.3776713588 3.00405704277
2944 1 35.7323147625 16.3642923492 0.148473836257
3452 1 35.4643667846 19.2365242787 3.01084612646
3453 1 34.1831170621 17.8080790259 1.47519460529
3454 1 35.7374187486 19.2249608051 0.136003634454
3485 1 37.0317790053 17.8038313311 1.66217870615
3517 1 39.6977289255 17.6408194211 2.19890521971
3484 1 38.1075905024 19.2049788948 3.30404957312
3486 1 38.6398767323 19.2252456489 0.362223341901
3007 1 42.3172653815 17.4524198604 1.75777433547
4059 1 42.959577014 20.0362496403 2.5223816778
3516 1 40.943521669 19.3595397826 3.43565718682
2527 2 41.0274621092 19.1905364814 1.16295092602
8199 1 45.9572756602 16.3604612918 3.44733037593
3042 1 46.066565855 16.5254488664 0.68141731779
2496 1 44.5289945017 18.0353137061 2.40085837488
8200 1 47.2624685079 18.0467717808 2.18570781456
8709 2 45.3239499996 20.1359161081 2.60432863448
8201 1 45.7822458458 19.0030878734 0.465523020599
3006 2 44.0265929442 17.2133280135 0.113072885015
8169 1 48.6323029099 16.5229630401 0.430828292618
8232 1 48.8274427043 16.4598500945 3.24397799014
8233 1 50.1161041502 17.9111929737 1.7215228416
8742 1 48.9247933497 19.348190097 3.27804802009
8679 1 48.4731208642 19.2919395688 0.336121177773
8264 1 51.6378366118 16.4560257149 3.09379799439
8265 1 52.9699991612 17.8713257646 1.59257759026
8296 1 54.4652901604 16.4279208028 2.94182751371
8774 1 51.6391867224 19.3050941976 3.09735242316
8806 1 54.4735485572 19.2855375241 2.9448419347
8202 1 51.4866250007 16.4283302489 0.265266907355
8712 1 51.4601409917 19.3229601102 0.254661995808
8744 1 54.2984655123 19.2797235964 0.0801961168669
8234 1 54.2893028279 16.4229393038 0.0808069846181
8297 1 55.8023509515 17.8485012089 1.42835648115
8328 1 57.3045360437 16.4172722098 2.77136385258
8838 1 57.3140745523 19.2735344558 2.7732172423
8329 1 58.6491275523 17.841741943 1.25961226833
8360 1 60.1563453219 16.4162152158 2.59563627825
8361 1 61.5008554609 17.8436106471 1.08419533885
8870 1 60.160979902 19.2729412873 2.59626723519
8391 1 64.5248185388 17.8495036567 3.74871422312
8392 1 63.0112743175 16.4195167249 2.41682639403
8393 1 64.3550799817 17.8473154433 0.904977465744
8425 1 65.8664568384 16.4231231879 2.23670606094
8902 1 63.0128170719 19.2747448173 2.41671307182
8935 1 65.8660985485 19.2772102122 2.23587620848
8424 1 67.3781790644 17.8520949515 3.5681185108
8426 1 67.2098417502 17.8509842979 0.72478327182
8458 1 68.7213472938 16.4258600983 2.0573634654
8968 1 68.719616875 19.2807166368 2.05577726974
8457 1 70.2315355378 17.8556424195 3.38927814809
8489 1 73.085053602 17.8613334351 3.21417299606
8490 1 71.5752682299 16.4282797399 1.88123242117
9000 1 71.5739401586 19.2869287445 1.87942020216
8394 1 70.0642160224 17.8550215383 0.546684672223
8427 1 72.9169937204 17.8606082152 0.373103491919
8521 1 75.9387997209 17.8678971752 3.04240892098
8522 1 74.425858701 16.4310797078 1.70948563775
9032 1 74.4296634665 19.2968353599 1.70918462848
8459 1 75.7666618219 17.8685064854 0.205718991323
8553 1 78.791896755 17.8645943221 2.86496875593
8554 1 77.2702756915 16.4325035536 1.54055892246
8586 1 80.0654705436 16.3957106604 1.34633314902
9064 1 77.291451456 19.3090081597 1.54452546307
9096 1 80.1787574963 19.3329949645 1.3746402878
8491 1 78.6199725143 17.8837287489 0.0514296265081
8585 2 81.4285448865 17.5894548491 2.76324181156
9128 2 82.7908389273 19.8508920721 1.07404887802
9126 1 83.1929827977 19.2941666536 3.53783655045
8617 2 84.6336541278 17.4409117601 2.64508123681
9180 2 85.9678283272 19.9212401758 0.824863814656
9127 1 85.8710873342 19.2402671635 3.32093841371
8670 2 87.7265208414 17.4216013514 0.40530367779
8649 2 87.9895032975 18.4208575049 3.32395846867
8647 1 88.5737222447 16.4325252453 2.47562279396
9179 1 90.3769925565 18.5920236502 2.12530329312
3068 1 89.8235265889 16.7957994709 0.281278819354
3609 2 2.86906088079 20.8614226528 2.48550711255
3578 1 1.45380709116 22.0608046767 0.97262080552
4119 1 2.69214239429 23.5248080281 2.52575711182
3577 1 0.990287989627 22.0878612906 3.74581247415
3641 1 5.52338889036 20.6720352343 2.66794611832
3610 1 4.27737053854 22.1417734251 1.13580987362
3642 1 7.04877020259 22.0981972022 1.31986908149
4151 1 5.54492387286 23.5457914444 2.68541182746
3673 1 8.37297296631 20.6636959795 2.81375610692
3674 1 9.8863481213 22.0961810973 1.46417300715
4183 1 8.37876610715 23.5241333066 2.82028145368
3705 1 11.2237732043 20.6610499299 2.96157050506
3707 1 11.3934469122 20.6611970044 0.120099610843
3737 1 14.0834280953 20.6656432304 3.12409244228
3739 1 14.2506320751 20.6651310416 0.284218140924
3706 1 12.7393155101 22.0928036409 1.6225717417
4215 1 11.2311567862 23.5206890968 2.96618999066
4217 1 11.4005856317 23.5234591085 0.117330940623
4247 1 14.0879723832 23.5223312846 3.12699624518
4249 1 14.2546122316 23.5209283038 0.282844846723
3771 1 17.1077923057 20.6681053988 0.450515943338
3769 1 16.9400582293 20.6700866584 3.29296349338
3738 1 15.5977886479 22.0962800278 1.78907592403
4281 1 17.1090910939 23.5218700271 0.448690891864
4279 1 16.9456497999 23.5293300331 3.29746364647
3803 1 19.9628675714 20.6675966266 0.621349137495
3801 1 19.7909092917 20.6691689179 3.46372477962
3770 1 18.451467531 22.097817667 1.95715323001
3802 1 21.3019588494 22.0956143983 2.129194809
4313 1 19.962347318 23.5220341989 0.61693512251
4311 1 19.7924969141 23.5313791904 3.46506302982
3835 1 22.8156564237 20.6633043738 0.797795000321
3833 1 22.6423516636 20.6636885342 3.64004642129
3834 1 24.1472412906 22.0938293713 2.30624327984