ITEM: TIMESTEP
10000
ITEM: NUMBER OF ATOMS
10200
ITEM: BOX BOUNDS pp pp pp
0.0 91.5382635842
0.0 28.55
0.0 45.7691317921
ITEM: ATOMS id type x y z
8 1 1.41305391229 1.85473930273 1.01654754567
549 2 2.98432779479 3.15647868189 2.31888704446
39 1 2.79064039971 0.654542908392 2.51483005262
40 1 4.32495992812 2.00126720793 1.02833448171
72 1 7.01961595466 2.12524785755 1.28247250615
581 1 5.48410903199 3.55305403618 2.62157235909
71 1 5.57779087617 0.645829331091 2.65835071677
104 1 9.87904991081 2.12867461631 1.4383287936
613 1 8.3550496136 3.55835051928 2.78367094806
103 1 8.37795464436 0.705135798898 2.79502207739
136 1 12.7420063443 2.12678784808 1.59823225399
645 1 11.2283251465 3.55379311219 2.939477419
647 1 11.3935080687 3.55430612589 0.0962263894268
677 1 14.0929150866 3.54948099673 3.10352809169
679 1 14.2555223133 3.55180091546 0.259021743496
137 1 11.3966642743 0.700794389138 0.091583974455
167 1 14.0918895316 0.700701004491 3.10301189234
169 1 14.2551671319 0.700980152437 0.257360969807
135 1 11.2320766842 0.703704945941 2.9416998164
168 1 15.6027318596 2.12429599576 1.76520106473
711 1 17.1106873962 3.55231084079 0.424658832817
709 1 16.9505924073 3.5450640889 3.27590230055
199 1 16.9520739441 0.695311274906 3.27355463793
201 1 17.1099096517 0.699964138756 0.422795468244
200 1 18.452730871 2.12447117999 1.93053833401
232 1 21.2949025579 2.12445898286 2.09768792797
743 1 19.9595513231 3.55413494659 0.591994549716
741 1 19.7929075078 3.54543626808 3.4438843883
231 1 19.7797871466 0.708783157787 3.4231017425
233 1 19.9597221844 0.699306382171 0.590405478157
264 1 24.1333544325 2.12672572354 2.27002526485
775 1 22.8050462318 3.55404779498 0.760233107143
773 1 22.6221214959 3.54635616738 3.61463013146
265 1 22.8039594611 0.700539883786 0.759283638334
263 1 22.6357615824 0.710522534785 3.59532735048
295 1 25.4530446537 0.701033501589 3.78714550766
805 1 25.4545135396 3.54872360296 3.78976463228
297 1 25.6485254563 0.703942494717 0.929865745862
807 1 25.6478221325 3.55337045009 0.929869022638
296 1 26.9708553231 2.13071925695 2.44516229728
839 1 28.48307219 3.55904718207 1.09859263908
329 1 28.4851995709 0.709307315673 1.09993267051
328 1 29.8057189209 2.14056500705 2.61087798348
360 1 32.6331241239 2.14915580575 2.78290868018
871 1 31.3202985222 3.56567733706 1.2663083193
361 1 31.3171529418 0.720592793884 1.26978018183
392 1 35.4526676873 2.16232436192 2.96630980538
394 1 35.6834365421 2.16101427706 0.108816170777
903 1 34.1511387105 3.57475506424 1.43822794881
393 1 34.1483663817 0.729796306404 1.44616293098
426 1 38.5085877432 2.22706796081 0.289395869457
935 1 36.9878354987 3.60954746885 1.62529320271
967 1 39.8715568136 3.59499631503 1.80988223408
424 1 38.2260838361 2.22111802973 3.20018272644
457 1 39.5882678362 0.822529840206 1.89673081949
425 1 36.9842440574 0.744186947231 1.6363296764
999 1 43.2142232051 1.39425652627 2.72323252706
456 1 40.9638896502 2.11983553315 3.41177427573
1510 2 42.4115293787 3.46902884845 2.26603784281
458 1 41.4906589527 1.92186764538 0.571136214641
1000 2 45.369101899 3.89327297855 1.1394189027
5650 1 47.4918679137 3.56213630921 1.8054138264
5649 1 45.8653919221 2.37476523421 3.20507637549
5651 1 45.8691613676 1.91408446281 0.353521201567
489 1 45.1237076881 0.199960141293 1.82433170045
5140 1 47.4543882378 0.799886424704 2.10161815178
5101 2 46.9534668489 0.00564499048879 0.0326745160723
5173 1 50.2286270689 0.780379232351 1.83069322007
5682 1 48.8641211637 2.19643539856 3.29460281139
5619 1 48.6227900767 2.04316206879 0.311659407283
5683 1 50.1477210214 3.56711430343 1.73281304465
5205 1 53.0121577574 0.742098183809 1.64573675654
5714 1 51.684443869 2.18468430217 3.15123810985
5746 1 54.4869445873 2.16264799509 2.98519983516
5652 1 51.5051337077 2.17150367614 0.266930253697
5715 1 52.9835393126 3.59928897525 1.61447679432
5684 1 54.3130503892 2.15832405141 0.108777358449
5237 1 55.8091737522 0.716381031879 1.4666209768
5778 1 57.3054807203 2.14393426252 2.81381019331
5747 1 55.8051363635 3.58342133725 1.46051402323
5269 1 58.6406032516 0.706483747171 1.30028247841
5301 1 61.4853893868 0.701409839212 1.13058134745
5810 1 60.1449612208 2.13394776212 2.64271414433
5779 1 58.6398514216 3.56947741504 1.29970974209
5811 1 61.4854487555 3.56073249415 1.13102872575
5331 1 64.5071882669 0.695279991891 3.80026387829
5333 1 64.3343144777 0.698971299502 0.954479925679
5842 1 62.9938889606 2.12793378075 2.46723884619
5841 1 64.504844247 3.55446101926 3.79943210702
5843 1 64.3342465117 3.55653964026 0.954950179275
5875 1 65.8433937179 2.12613983904 2.28704389734
5364 1 67.3547962041 0.696255618127 3.61822750224
5366 1 67.1829020797 0.699134458546 0.773927780884
5908 1 68.6915486335 2.12646827251 2.10507362174
5874 1 67.3539416071 3.55384772545 3.61709913132
5876 1 67.1830458287 3.55543619765 0.774461436203
5397 1 70.2001667601 0.697105673387 3.43535158532
5429 1 73.0450579306 0.696742688622 3.25417812756
5940 1 71.5409794973 2.12770541262 1.92348313589
5334 1 70.0312861891 0.700738457135 0.593492890752
5367 1 72.8852974483 0.704369646477 0.416804085648
5907 1 70.2013068522 3.55431063225 3.43375974033
5939 1 73.04866459 3.55490637964 3.25188776119
5844 1 70.0318189042 3.55566904056 0.594000255648
5877 1 72.8878714888 3.55661572882 0.415826590648
5461 1 75.9144932486 0.704677459488 3.09305201746
5972 1 74.3995046533 2.12909994756 1.75215875216
5399 1 75.741014175 0.709997318466 0.243987909383
5971 1 75.9190253511 3.54688472498 3.09326142432
5909 1 75.7440219605 3.55505544186 0.240416958174
5493 1 78.7789752536 0.712101756496 2.92847792046
6004 1 77.2609400509 2.12946682794 1.58599597157
6036 1 80.1376422133 2.14112827371 1.43277996721
6003 1 78.7876333816 3.53239850846 2.93752518577
5431 1 78.6038435757 0.715571759812 0.0745112359224
5941 1 78.5943127659 3.55018857253 0.0700101246591
6068 1 82.9610833482 2.16395198887 1.31950747819
5525 1 81.607557573 0.632488833608 2.72251847236
6035 1 81.6913814489 3.59235773419 2.78018738111
6610 2 87.3093784807 3.08170814609 1.32155189979
5590 1 84.4568752019 0.588333295232 2.50553868382
6608 2 84.3495124549 3.97927605022 2.40803890276
5609 2 91.025611045 2.7456024842 1.99250556057
518 2 1.40148863617 5.38890890554 0.7592704593
1059 1 2.4699516288 6.64945936851 2.47493287982
1028 1 0.8575494412 7.84872635273 0.525742547918
550 1 4.0768678254 5.03178398571 1.15809614056
582 1 6.98988559964 4.99473311937 1.2975361598
1060 1 4.15586310437 7.88237491049 1.15053395798
1091 1 5.41616588203 6.40428514943 2.65064782175
1092 1 6.99740404744 7.82964863365 1.30133940514
614 1 9.87459121847 4.98186521235 1.44309333974
1123 1 8.34860927103 6.4040224733 2.7890628972
1124 1 9.87880762745 7.82682660876 1.44423759078
646 1 12.7430180849 4.97694755634 1.59978241542
1155 1 11.2300776253 6.40181422639 2.94078273338
1156 1 12.7438975122 7.82898935626 1.59967871227
1157 1 11.3952906781 6.40390610212 0.0985041685396
1187 1 14.0925401881 6.40198883907 3.10249761171
1189 1 14.2560446353 6.40349936914 0.259763852226
678 1 15.602811705 4.97555237361 1.76587176327
1188 1 15.6003981489 7.83161137257 1.76378163432
1221 1 17.1105134186 6.4055232551 0.425691596534
1219 1 16.9454367386 6.40363931097 3.27142711027
710 1 18.452649102 4.97747999017 1.93393683731
742 1 21.2962403196 4.97988109673 2.10275862063
1220 1 18.4509037222 7.83461107743 1.9322695969
1252 1 21.2975661298 7.83667600395 2.10352047514
1253 1 19.960052847 6.40795394453 0.594155481259
1251 1 19.7900934683 6.4075128147 3.44190397838
774 1 24.1346086118 4.97840394995 2.27416039554
1284 1 24.1380730278 7.83652734819 2.27625290563
1285 1 22.8063319683 6.40774743693 0.763459797799
1283 1 22.629532923 6.40908734369 3.61515311932
1315 1 25.4621499852 6.40552982472 3.78941338432
1317 1 25.6460798334 6.40695368925 0.93389495784
806 1 26.9709368886 4.97913954331 2.44711952192
1316 1 26.9727370091 7.83395924947 2.44843585539
1349 1 28.4828924551 6.40977969999 1.10242689171
838 1 29.8059052045 4.98628859754 2.61336922004
870 1 32.6347180038 4.9928774421 2.784176677
1348 1 29.8051650896 7.83552340038 2.61839051427
1380 1 32.6380004164 7.83800029866 2.79196672597
1381 1 31.3226699437 6.41553707876 1.26957345964
902 1 35.452598906 5.00147646379 2.95904086778
904 1 35.6919821991 5.00506636883 0.0995274257919
1412 1 35.4560678053 7.82114963783 2.97204184054
1413 1 34.1628269182 6.41999843592 1.43777481107
1414 1 35.7124326273 7.82525118157 0.0861435646312
1445 1 37.0167002722 6.40495459974 1.59255211298
934 1 38.2977577069 5.01462388062 3.14286244136
1444 2 38.0835698212 7.80036918536 3.17865323609
1477 1 39.8985216894 6.42178597263 1.84039790249
936 1 38.6062139903 5.01072601857 0.303208693913
1446 1 38.6378786253 7.80982577082 0.225114623933
966 1 41.1344790846 5.05581286872 3.38696136998
1986 1 41.5895955475 7.53403533702 0.140580664889
1509 1 42.6590138371 6.88708143109 2.42831300637
968 1 41.5657600359 5.08233281168 0.567867620791
1511 2 41.0587701362 7.73284298678 3.74726543188
6159 1 46.294830615 5.15707173933 3.24430370675
6160 1 47.5063726669 6.55372792595 1.81749917499
6669 1 46.3728619751 7.94474196587 3.44575800482
6671 1 45.9042290265 7.98001043976 0.57649873739
6161 2 44.840181806 6.67667124329 2.13889353778
6192 1 48.8626844662 5.02950369911 3.24724352934
6193 1 50.158107546 6.47643318771 1.74060594951
6129 1 48.7314002229 5.031675294 0.343396790541
6702 1 48.9138399615 7.94260488284 3.27316303276
6639 1 48.6606947274 7.9606691821 0.329937937846
6224 1 51.6424790669 5.01966124814 3.11534898953
6225 1 52.9604692192 6.44687055414 1.59954627793
6256 1 54.4706293693 5.01840130453 2.97295046603
6162 1 51.4619623148 5.02267851527 0.236255409129
6734 1 51.6518768951 7.87260605735 3.12158414987
6766 1 54.4535972009 7.86722789606 2.97041258857
6672 1 51.4427290268 7.88389816686 0.218111639295
6194 1 54.2965648479 5.01543279691 0.0957494011135
6704 1 54.2803698627 7.86596382029 0.0895765820192
6257 1 55.7932417848 6.43812758005 1.45499958174
6288 1 57.300798605 5.00575812855 2.81239186594
6798 1 57.2945306253 7.85589313297 2.81035101698
6289 1 58.6376470067 6.42596058148 1.29764921101
6320 1 60.1437841404 4.9936343217 2.64304387045
6321 1 61.4856061582 6.41782909817 1.12989653274
6830 1 60.1421528785 7.84811723776 2.6417302998
6351 1 64.5045708065 6.41332101219 3.79768255953
6352 1 62.9932603029 4.98664976225 2.46685939327
6353 1 64.3353636491 6.41367034748 0.954099630403
6385 1 65.8436672701 4.98385192114 2.28633213945
6862 1 62.9936189298 7.84319668347 2.46545359343
6895 1 65.845411916 7.84104922972 2.28490962529
6384 1 67.3551405354 6.41218382543 3.61505847236
6386 1 67.1849155296 6.41206237008 0.773759737881
6418 1 68.6927944853 4.98332801369 2.10428380408
6928 1 68.6957824355 7.84029650069 2.10290343995
6417 1 70.204228434 6.41221319275 3.4314239345
6449 1 73.0552473454 6.41110855763 3.2498144709
6450 1 71.5436809831 4.98322862338 1.92228718429
6354 1 70.0345040911 6.41121129044 0.593255578543
6387 1 72.8911179166 6.40803069344 0.415135065123
6960 1 71.548162566 7.83881414406 1.92112915481
6481 1 75.9253608114 6.39712641161 3.08907116445
6482 1 74.404983919 4.97871901015 1.75085182463
6419 1 75.7458989803 6.40279898782 0.23955597597
6992 1 74.4077621428 7.8316859353 1.74876822747
6513 1 78.7681309991 6.39575194712 2.91764519475
6514 1 77.2629623169 4.96879190146 1.58445410851
6546 1 80.1100558439 4.96668873622 1.41292897999
7024 1 77.2549925377 7.8318111332 1.57736966893
7056 1 80.0732220226 7.85708778068 1.39388202744
6451 1 78.5823088044 6.40441222582 0.0616819608297
6545 1 81.5538778973 6.44859097629 2.71649236647
6578 1 82.9114807249 5.11437739574 1.15803368998
7088 1 82.9408315993 7.82669552845 1.2132335859
6577 1 84.5496330423 6.4701092229 2.50634556745
6609 1 85.9088266989 4.99532700257 0.704584969428
7138 2 86.8982007461 6.10027951418 2.53014157954
7120 1 85.7592566048 7.86112294627 0.973179489037
7118 1 86.1803294489 8.03305606794 3.6514658111
6100 1 88.4299806155 5.31718677334 0.815757904634
6119 1 90.7847099041 5.83577109348 0.0802975842739
7140 2 90.224509462 7.01467114245 1.91961343322
1569 1 2.54012453844 9.23683349246 2.43503930078
1539 1 1.31967132614 10.7292878574 0.981317930495
2079 1 2.63962052779 12.1303136218 2.53433495163
1570 1 4.14686689448 10.6806350059 1.1532949611
1601 1 5.48208931173 9.26366045184 2.65741954254
1602 1 7.03660733625 10.6785504395 1.30140728306
2111 1 5.54708471517 12.0849663816 2.67125574288
1633 1 8.36870560602 9.24532228777 2.79278563334
1634 1 9.88652686627 10.6820756878 1.44349157594
2143 1 8.40058297096 12.0906621987 2.80844585623
1665 1 11.2336707579 9.25224767593 2.94088216527
1666 1 12.7418045539 10.6866407908 1.59976385582
1667 1 11.3970590187 9.25620226998 0.0986454279849
1697 1 14.09058996 9.25776027978 3.10145071612
1699 1 14.2543352717 9.25960794715 0.259470442923
2175 1 11.2300640477 12.1150418488 2.94039579744
2177 1 11.3949558387 12.1183921788 0.100237505131
2207 1 14.0884616268 12.1153405648 3.10092527806
2209 1 14.2517462541 12.1183525961 0.25935590809
1698 1 15.5979766309 10.6889958614 1.76272540871
1731 1 17.1090982975 9.26204411969 0.42527492468
2241 1 17.1080763852 12.1190458153 0.425352375616
1729 1 16.9422476977 9.26120768486 3.26925729089
2239 1 16.9411121287 12.1173885806 3.26913437472
1730 1 18.4500825765 10.6913212706 1.93223422823
1762 1 21.2979579157 10.693925339 2.10568087976
1763 1 19.9601161279 9.26428068762 0.595265138097
2273 1 19.9599065942 12.1216391288 0.597055365176
1761 1 19.7895106259 9.26396770617 3.4414209364
2271 1 19.7893758123 12.1200303764 3.44256455075
1794 1 24.1408840916 10.6969648216 2.28085473441
1795 1 22.8065778047 9.26613675736 0.767369220404
2305 1 22.8071727534 12.1246868092 0.771334361991
1793 1 22.6326368384 9.26624998267 3.61661595003
2303 1 22.6339617188 12.1231524695 3.61962883658
1825 1 25.4674616789 9.26607740743 3.79116502102
2335 1 25.4729118843 12.131793803 3.79827574408
1827 1 25.646115018 9.26548453792 0.938028895652
2337 1 25.6477966692 12.1266132239 0.943581013503
1826 1 26.972460788 10.6950702549 2.45077833254
1859 1 28.482923671 9.2646206281 1.10721176243
2369 1 28.4821888945 12.1241254015 1.11336177884
1858 1 29.8025618078 10.6913924788 2.62124721231
1890 1 32.6378991982 10.6813538925 2.79800268622
1891 1 31.3237229926 9.26299926429 1.27682498542
2401 1 31.3212587582 12.1165706518 1.28599608099
1922 1 35.4709235128 10.6664537626 2.98285184932
1923 1 34.1741943509 9.25190303058 1.4496959425
1924 1 35.7128450273 10.6784512509 0.134685796426
2433 1 34.1556554418 12.1062029703 1.46979967684
1955 1 37.0091193752 9.19802703156 1.59475980626
1954 1 38.1582190472 10.5902476399 3.14993701949
2465 1 36.9151573037 12.1167246575 1.67227010374
1956 1 38.5750797922 10.689094831 0.477894396086
1987 1 40.0286943357 8.87647752388 1.78976100659
1988 2 40.2418465666 10.9284164219 2.51071038375
2019 2 42.5802489065 9.06525597773 1.37517809191
2020 1 44.5260434527 9.08513208039 2.63751778601
7179 1 46.3782400978 10.7626055815 3.43160689075
7181 1 45.6607805629 10.8307370934 0.65578120456
6670 1 47.4023296843 9.42080757406 1.83181328968
6703 1 50.1416808503 9.33706116784 1.70465486173
7212 2 49.0400793056 10.6137456344 3.34728354642
7149 1 48.5367748167 10.7806725145 0.154791274108
7213 1 50.0822038448 12.0902772324 1.70834361778
6735 1 52.9391664289 9.29901171522 1.5951804039
7244 1 51.6330014809 10.7120150135 3.13402428933
7276 1 54.4516100327 10.7006678635 2.96975728348
7182 1 51.4199331759 10.7256649239 0.196998204757
7245 1 52.9379769105 12.1126796156 1.59195789911
7214 1 54.2754022506 10.703222741 0.0812015158145
6767 1 55.7858158289 9.28135008976 1.45090828853
7308 1 57.2908244367 10.6990768528 2.80881744678
7277 1 55.7824378353 12.1199525548 1.44895900937
6799 1 58.634639827 9.2754151578 1.29513898314
6831 1 61.4854471656 9.27154064538 1.12815201554
7340 1 60.1404722914 10.6976670024 2.64041409451
7309 1 58.6321445836 12.1213096607 1.29372052887
7341 1 61.4848059483 12.1221432909 1.12690084908
6861 1 64.505778107 9.2692450777 3.79664656416
6863 1 64.336951283 9.26934300339 0.952713314023
7372 1 62.9940950996 10.6966086984 2.46429650089
7405 1 65.8477233641 10.696221554 2.2839619313
7371 1 64.5069773893 12.1224244684 3.79603868237
7373 1 64.3381950381 12.1227504782 0.951651077813
6894 1 67.3579176255 9.2686587853 3.61410262541
6896 1 67.1878436149 9.26827071673 0.772590452668
7438 1 68.6997135342 10.6959889221 2.10237966184
7404 1 67.3610909289 12.1229874508 3.61403531412
7406 1 67.1907271479 12.1230810315 0.771847630461
6927 1 70.2087858647 9.26819306782 3.43094836911
6959 1 73.0614348804 9.26603860196 3.250548428
7470 1 71.5527059561 10.6942669932 1.92123940389
6864 1 70.038365143 9.26707703025 0.592258593718
6897 1 72.8938561707 9.26264161415 0.413507759583
7437 1 70.2138482525 12.1225231968 3.43216276352
7469 1 73.0670301821 12.1196985554 3.2541643248
7374 1 70.0421290531 12.122704965 0.591677740403
7407 1 72.894678239 12.1208189954 0.41314724767
6991 1 75.9212856808 9.25715156736 3.08503279406
7502 1 74.4075219027 10.690270529 1.74744632459
6929 1 75.7411501642 9.26032269599 0.236891048321
7501 1 75.9189198446 12.1193677203 3.084312109
7439 1 75.7406222373 12.12275814 0.238614778647
7023 1 78.76676617 9.26460187699 2.92106565699
7534 1 77.2511725709 10.6929877485 1.58033725836
7566 1 80.0986494343 10.7032623402 1.41822409374
7533 1 78.7674351412 12.119747537 2.9262469008
7471 1 78.5741182289 12.1215876493 0.0679363958529
6961 1 78.5716561138 9.27507377232 0.0619707987206
7055 1 81.6165078026 9.25403542631 2.7527921999
7598 1 82.9291375425 10.7251324728 1.27507641853
7565 1 81.6303370854 12.1406560039 2.77373489774
7119 2 87.581448783 9.00390529672 1.62413664918
7597 1 84.5028089902 12.1618451254 2.64180971038
7087 1 84.3593683615 9.25235804765 2.59374299881
7630 1 85.7655410187 10.7589231027 1.07659836995
7628 2 86.886597556 11.6671319839 3.17521920935
1538 1 91.3232572368 9.21638001156 2.31032234297
7568 1 88.2110115624 10.9820533125 0.943333291834
7137 1 89.6256469287 8.83563989853 0.454432647207
7139 2 90.4797901645 11.0504849003 0.772184611897
6630 1 89.0926050205 8.61038688873 3.40248975619
2589 1 1.42066235303 13.6312419801 1.08456587499
2557 1 2.8723939855 14.9436276646 2.56249996911
8159 2 0.804593346152 15.7203407914 2.90130348942
2080 1 4.24854791182 13.4812918743 1.1966781981
2112 1 7.09088981834 13.4978872545 1.32178506106
2621 1 5.60445345783 14.914255477 2.68972480807
2144 1 9.88990345301 13.5403144192 1.43505379634
2653 2 8.41622044538 14.9450648462 2.83401115014
2176 1 12.7373020703 13.5464865615 1.60057987996
2685 1 11.2295465063 14.9649897247 2.94498063706
2687 1 11.3884552975 14.975489915 0.100177673046
2717 1 14.0899208902 14.9703365334 3.10260655644
2719 1 14.2518094943 14.9742566985 0.259081380165
2208 1 15.5973559451 13.5455243826 1.76279928216
2751 1 17.1078182461 14.9756435634 0.425618411553
2749 1 16.941061312 14.973648812 3.27003811265
2240 1 18.4495693558 13.5477406885 1.9330902224
2272 1 21.2986235558 13.5514604429 2.10863378931
2783 1 19.9595335771 14.9779178749 0.597897910425
2781 1 19.788666254 14.9765188638 3.44354874832
2304 1 24.1429282589 13.5567278679 2.28679066501
2815 1 22.8080601074 14.9813523848 0.773813268003
2813 1 22.6361098259 14.9829951057 3.62295529078
2845 1 25.4678194977 14.9800810828 3.795246207
2847 1 25.6485038041 14.9821126456 0.94787041416
2336 1 26.9739132964 13.5621288511 2.46223327784
2879 1 28.4817141985 14.9794383852 1.11886466336
2368 1 29.7996589731 13.5530016831 2.63166287621
2400 1 32.6264106617 13.5401982472 2.81295957636
2911 1 31.3170415317 14.9709572471 1.29098850702
2432 1 35.4321553258 13.5302377716 3.02017088359
2434 1 35.6735819912 13.5253552981 0.131009977091
2943 1 34.1427796996 14.9599958605 1.47990535192
2975 1 36.8851046187 14.9578881001 1.67330539944
3005 2 38.1316760586 13.5960634683 3.25224393221
2498 1 38.4320646812 13.5313745844 0.416065340829
2976 1 38.4343739444 16.3015017217 0.33967456075
2974 1 38.1386405107 16.273422114 3.24903905269
2530 2 43.6926345101 12.3823325564 1.48784576336
3039 1 43.8926175151 13.6574434532 3.33036299149
3009 2 40.5386118803 13.8901389774 1.0649021885
3040 1 43.6683642854 15.1142147958 1.37176108214
3549 2 43.6532438565 16.121989312 3.49910225582
2494 2 40.4339712715 16.0759664021 3.6929347458
3519 1 41.4308272243 16.2251244167 0.272660550746
7180 2 47.249326118 12.261402084 1.57573141717
7689 1 46.3711107398 13.3482022936 3.53892233578
7690 1 47.5911454508 14.8852180947 1.85993104892
7691 1 45.6149398624 13.6977566701 0.983675406793
8199 1 45.7176239028 15.6133332547 2.82849998511
3042 1 46.040368717 16.2731490642 0.487170030843
7722 1 48.8752206055 13.4353138128 3.30723428255
7723 1 50.1258177727 14.9243016022 1.73791514288
7659 1 48.631265139 13.5380716897 0.27688062965
7754 1 51.6136036246 13.4996248871 3.11276535381
7755 1 52.933626403 14.948557527 1.59726140915
7786 1 54.4449448546 13.5336854605 2.9660118675
7692 1 51.4166841116 13.5213384329 0.217345198472
7724 1 54.2712496786 13.5398169429 0.0851877431905
7787 1 55.7805171158 14.960920536 1.45063308149
7818 1 57.2883412792 13.5418022207 2.80740841021
7819 1 58.6310845512 14.9674959467 1.29362898468
7850 1 60.1391309855 13.5452759438 2.63940892894
7851 1 61.484311361 14.9715912147 1.12636619734
7881 1 64.507555076 14.9738880952 3.79562038064
7882 1 62.9942089312 13.5476386371 2.46350503111
7883 1 64.3385999734 14.9745676222 0.951190125949
7915 1 65.8494809535 13.5492830224 2.28356727976
7914 1 67.3630405214 14.9757829205 3.61430162148
7916 1 67.1921331743 14.9767611011 0.77185951582
7948 1 68.7031160686 13.5502839768 2.10269323605
7947 1 70.2170197902 14.97691277 3.43355883468
7979 1 73.0688608546 14.9775798251 3.25563827965
7980 1 71.5561990589 13.5499953991 1.92289904361
7884 1 70.0440133457 14.9789757181 0.592386847592
7917 1 72.8953914043 14.9802920769 0.413638299904
8011 1 75.9209274383 14.9789053389 3.08453167655
8012 1 74.4074824664 13.5505295115 1.74805611115
7949 1 75.7427929997 14.9830544593 0.23884460817
8043 1 78.7612409482 14.9744478245 2.91163890025
8044 1 77.2571512054 13.5552928288 1.57898224911
8076 1 80.0766062441 13.548104162 1.41819983466
7981 1 78.6031203208 15.005870493 0.0825937265672
8075 1 81.5831535941 14.8843601635 2.75522225811
8108 1 82.9342475275 13.5998718913 1.25703064686
8107 1 84.3556443436 15.1406912314 2.61192656111
8140 1 85.4024214748 13.7008472466 0.925072823086
8648 2 86.7188324918 15.2438438958 1.99285623535
8139 1 87.5549499728 13.1623674454 1.73116599192
8158 2 89.6293825331 13.8031856416 2.45199528094
8160 1 89.345413953 13.2720346381 0.0670729424532
2591 1 1.47124658917 16.3506953104 0.90196598908
3099 1 2.80278937947 17.6485858122 2.56696281651
8669 1 1.49757574676 19.1456545339 1.09893761565
3067 1 1.42059181849 19.2537214497 3.80993031227
2590 1 4.31365635733 16.3286642536 1.22017878771
2622 1 7.11848270788 16.3723452152 1.35616283315
3100 1 4.24628678863 19.2608186786 1.25661565905
3131 1 5.60624899705 17.8108996188 2.69116428428
3132 1 7.11061116023 19.2616211986 1.35851031619
2654 1 9.8924719703 16.3969585157 1.4403340061
3163 1 8.42035414078 17.8214415139 2.83179712625
3164 1 9.89284983327 19.2481213797 1.44608115063
2686 1 12.7381621955 16.3955399853 1.60288260133
3195 1 11.2332833262 17.8160784343 2.94692099016
3196 1 12.7432479321 19.2535426736 1.60176083936
3197 1 11.3953652885 17.8229909101 0.0993954445119
3227 1 14.0897917787 17.8265221347 3.10368387354
3229 1 14.2527410765 17.8281946754 0.260226417387
2718 1 15.5976872484 16.4015311356 1.76394919972
3228 1 15.5986602474 19.258587794 1.76514706813
3261 1 17.1080554165 17.8318164411 0.426241769311
3259 1 16.9412167906 17.8310867228 3.2707810434
2750 1 18.4492691421 16.4041853918 1.93371759151
2782 1 21.2980945834 16.4068119972 2.10923588247
3260 1 18.4495368998 19.2610359586 1.93430808751
3292 1 21.2993756785 19.260984762 2.10928990679
3293 1 19.9597455431 17.8336943874 0.59807261337
3291 1 19.7882143411 17.8337444916 3.44334543726
2814 1 24.148050754 16.4087595223 2.29293813529
3324 1 24.1465937886 19.2577292178 2.29059612296
3325 1 22.809390369 17.8334703472 0.77430137284
3323 1 22.6370439255 17.8330467281 3.62385272694
3355 1 25.4722497252 17.8375397235 3.80148797627
3357 1 25.650401472 17.8317824325 0.949495571652
2846 1 26.974175514 16.4070310433 2.45904855855
3356 1 26.9762959252 19.2511311308 2.46959809745
3389 1 28.4811200858 17.8276843401 1.1213788724
2878 1 29.7955089569 16.4025735425 2.64049851875
2910 1 32.6197349931 16.397742129 2.8161805562
3388 1 29.7943324403 19.252137027 2.63973525837
3420 1 32.617470515 19.25192649 2.81792625392
3421 1 31.3127710139 17.8249250222 1.29375886176
2942 1 35.4339287285 16.4064435288 3.00706315239
2944 1 35.6617439806 16.3770239447 0.142220582211
3452 1 35.4366120496 19.2406921722 3.00551687832
3453 1 34.140074554 17.8211441639 1.47486270653
3454 1 35.668956294 19.2478274916 0.159003368261
3485 1 36.999241737 17.8169120742 1.65556014865
3517 1 39.6807848676 17.4535291511 1.94933110663
3484 1 38.1673368108 19.2335508858 3.1884045253
3486 1 38.6712814248 19.1949474397 0.334726166544
3007 1 42.2073556724 17.3062232346 2.23346792632
4059 1 42.9344492097 19.7530556995 2.39048949837
3516 1 40.7800787507 19.407920864 3.20783238541
2527 2 41.1124727885 18.739408464 0.836169636254
2496 1 44.5451638634 17.6086778715 1.84405245788
8200 1 47.1434909865 17.7663201358 2.32642686499
8709 1 45.3640934335 19.6409738471 2.93648058087
8201 1 45.8704325128 18.871643058 0.453285083842
8169 1 48.6181479997 16.4107432279 0.39492229921
8232 1 48.8740943736 16.3471665858 3.27032089352
8233 1 50.0920941684 17.8052662032 1.74644892965
8742 1 48.8534041054 19.2634672665 3.23768094532
8679 1 48.5294917818 19.2109999645 0.451432698655
8264 1 51.6163031531 16.3756091735 3.1099734352
8265 1 52.9449008401 17.7982078872 1.60331016211
8296 1 54.4458960456 16.3787972811 2.96474820508
8774 1 51.6211552732 19.236360008 3.10499308906
8806 1 54.4535816099 19.232458353 2.96561102803
8202 1 51.4196086354 16.3758166986 0.231946765497
8712 1 51.4405134524 19.2136204766 0.256519128997
8744 1 54.2806714949 19.2315078966 0.0976105168617
8234 1 54.2719444246 16.3799180474 0.0914700737981
8297 1 55.7838191221 17.8083399199 1.45205951723
8328 1 57.288448252 16.3879694484 2.80635954258
8838 1 57.2920941199 19.2388591679 2.80564653321
8329 1 58.6322797002 17.8166331996 1.29386111913
8360 1 60.1393267425 16.3940107136 2.63849180778
8361 1 61.4846597098 17.8223912033 1.12639624186
8870 1 60.1414739803 19.2460035688 2.63784113638
8391 1 64.5077432946 17.8259429056 3.79547457252
8392 1 62.9943139009 16.3983285324 2.46307511784
8393 1 64.3382011543 17.8265714349 0.951337897668
8425 1 65.8498060233 16.4014537809 2.28363206031
8902 1 62.9950064697 19.2512276927 2.46319151942
8935 1 65.8489003221 19.254481759 2.28413277623
8424 1 67.3626439775 17.8284371491 3.61467511646
8426 1 67.1914425286 17.8298880191 0.772091798671
8458 1 68.7040715422 16.404189868 2.10332719031
8968 1 68.7024282029 19.2573302879 2.10343533109
8457 1 70.2168827099 17.8313999073 3.43416819697
8489 1 73.0703038602 17.8355805173 3.25610679399
8490 1 71.5575448115 16.4068297467 1.92374085817
9000 1 71.5564540353 19.2617932249 1.9237843543
8394 1 70.044361517 17.8332568383 0.591853329859
8427 1 72.8967551366 17.8375247959 0.413211694112
8521 1 75.9234005793 17.8366753241 3.08394183247
8522 1 74.4092727304 16.4095082724 1.74795932
9032 1 74.4115908292 19.2677870373 1.74735114928
8459 1 75.7476277729 17.8413969072 0.238006689631
8553 1 78.6754594154 17.837240087 2.91747607179
8554 1 77.2608343296 16.4057203966 1.5758270945
8586 1 80.1446322832 16.4708743682 1.47015401712
9064 1 77.2645715748 19.2805530556 1.56609006628
9096 1 80.0859852665 19.3056500325 1.36857541038
8491 1 78.6018379332 17.8406568191 0.0727830539623
8618 1 82.8751317587 16.4751859013 1.23513978299
8585 2 81.9082931003 18.2213570373 2.38121595742
9128 1 83.0788025501 19.4973888872 1.03230891879
8650 1 85.4404814801 16.814538039 1.00878574266
8617 1 84.3715980275 17.9442546885 2.87582666897
9180 2 85.3702728639 19.428243564 1.59825744217
8649 2 88.0738291792 19.3830873109 2.69597484343
2559 2 90.3739610054 16.4932051951 0.643828944889
8647 1 88.0527191025 17.0877917345 1.60543080443
9179 2 91.0387023735 18.8324553313 2.85556811517
3609 1 2.7382924704 20.7421076805 2.48640119964
3578 1 1.56490357916 22.1631032759 0.865599970954
4119 1 2.71889086182 23.5522466511 2.48742547856
9689 1 0.0806410910839 23.5404553963 2.0550443869
3641 1 5.56225044831 20.7033236788 2.67988362839
3610 1 4.25934246922 22.1689104928 1.15591460808
3642 1 7.09746449821 22.1286178217 1.32977155624
4151 1 5.55889555488 23.5528706593 2.672662845
3673 1 8.41659060737 20.6941683665 2.82479150787
3674 1 9.89592688008 22.1088791862 1.43591663965
4183 1 8.41033081035 23.5461751642 2.81686624079
3705 1 11.2420947042 20.6839379737 2.94584113983
3707 1 11.3997102109 20.6784659454 0.0923337137157
3737 1 14.0927207782 20.686362928 3.10434586005
3739 1 14.2553446777 20.684627227 0.25936935287
3706 1 12.7471311201 22.1121244025 1.59852957202
4215 1 11.2437193979 23.5402540573 2.94451945385
4217 1 11.4055070719 23.5390763268 0.0907367974838
4247 1 14.0946826575 23.5447663946 3.1048399132
4249 1 14.2572543194 23.5419437969 0.258203908353
3771 1 17.1088953408 20.6880598933 0.426963331239
3769 1 16.9435014102 20.6902888588 3.27250643624
3738 1 15.6014205648 22.1170564139 1.76639133967
4281 1 17.109608001 23.5429644893 0.425667794802
4279 1 16.9489237717 23.5509413941 3.27639495785
3803 1 19.9603843834 20.6884321017 0.598429382685
3801 1 19.7898229857 20.6905480127 3.4437980677
3770 1 18.4514974164 22.1185145283 1.93562344335
3802 1 21.2994065032 22.1173688807 2.10806596092
4313 1 19.9604803756 23.5421621191 0.595458500439
4311 1 19.7933331524 23.5524411893 3.4450923549
3835 1 22.8107240304 20.6879931465 0.773638363055
3833 1 22.6353213067 20.6884673471 3.62217684048
3834 1 24.1434589616 22.116834088 2.28692167409
4345 1 22.8098757167 23.5430524465 0.768374844511
4343 1 22.6286940656 23.5520124654 3.61981569847
4375 1 25.4630917967 23.5526272942 3.80056147696