ITEM: TIMESTEP
22000
ITEM: NUMBER OF ATOMS
10200
ITEM: BOX BOUNDS pp pp pp
0.0 91.5382635842
0.0 28.55
0.0 45.7691317921
ITEM: ATOMS id type x y z
8 2 1.62442332021 2.18377175928 1.08222731758
549 1 2.80955068709 3.5878923521 2.44856018981
39 1 2.77783781526 0.716550674483 2.53412234265
7 1 1.06864138961 2.21744760899 3.70283085286
40 1 4.27226281867 2.12678797924 1.12267499672
72 1 7.08449301013 2.11300768646 1.30704743063
581 1 5.57902729805 3.55053421069 2.6315678842
71 1 5.54524875081 0.685126188043 2.65548258107
104 1 9.91849104041 2.11106795245 1.47079761882
613 1 8.4089819963 3.54814019233 2.81325723177
103 1 8.40418108066 0.682058606808 2.82010822703
136 1 12.7652934789 2.11109827352 1.63242684702
645 1 11.2573966021 3.54191606721 2.97573092369
647 1 11.4313026763 3.53883719076 0.123124523959
677 1 14.1062474853 3.54087163734 3.13839986619
679 1 14.2761880234 3.5398965608 0.28742344321
137 1 11.4256607806 0.678844949648 0.125907509903
167 1 14.1057003951 0.685080399719 3.14041876982
169 1 14.2745606024 0.683678725862 0.290327739645
135 1 11.2555025088 0.683360546068 2.97878368392
168 1 15.6140947213 2.11377839448 1.79685861552
711 1 17.1243683995 3.5421399943 0.45491331107
709 1 16.9538540651 3.54241140719 3.30428317222
199 1 16.9535628837 0.688046639548 3.30562947582
201 1 17.1246902189 0.687821125377 0.457433926437
200 1 18.4634456175 2.11547038712 1.96500529799
232 1 21.312494471 2.11399630468 2.13488059899
743 1 19.9731600484 3.5431224764 0.62424430389
741 1 19.8014274159 3.54289779128 3.47289046079
231 1 19.8035184856 0.687967485255 3.47449197674
233 1 19.9745908246 0.689466899773 0.626482842652
264 1 24.1521543717 2.11205954722 2.30369156958
775 1 22.8201610955 3.54383394145 0.791035563668
773 1 22.6444893954 3.54145187129 3.64026295683
265 1 22.8221640475 0.690533103003 0.79421879834
263 1 22.6412830452 0.694043119807 3.63544840205
295 1 25.4854311244 0.696452759857 3.8022294229
805 1 25.4808107843 3.54110311912 3.80712498224
297 1 25.6629969396 0.693396859154 0.958492655702
807 1 25.6646138198 3.54378716441 0.956180011188
296 1 26.9925059719 2.11728823998 2.46709652796
839 1 28.5113747639 3.54512790895 1.12107527464
329 1 28.5073461967 0.698243091632 1.11907791439
328 1 29.8386951109 2.12268453171 2.63167554477
360 1 32.6752115817 2.12270335717 2.79782473022
871 1 31.3596735131 3.54729417575 1.28431727689
361 1 31.3489811963 0.699825846653 1.27732201336
392 1 35.4935858484 2.11282867774 2.97893844597
394 1 35.7274469545 2.1145535236 0.098242744344
903 1 34.2013442816 3.5436871472 1.45370624577
393 1 34.1903471276 0.692410914529 1.43982945992
426 1 38.56116021 2.13157330901 0.236032379782
935 1 37.0273413977 3.53547792825 1.62986814387
967 1 39.8090525511 3.44497437603 1.840867038
424 1 38.2629788983 2.09903623227 3.19320021156
457 1 39.6762892792 0.730956339799 1.82287343169
425 1 37.0184957155 0.681919526119 1.60791999043
456 2 42.3566117821 3.41939836086 2.18808411488
458 1 41.3718772684 2.02846659166 0.514162376093
5081 2 43.693479227 1.02794870747 0.509761788022
487 1 41.1345534836 1.91216800374 3.44351181181
5048 2 42.9232132209 0.0811864898565 3.395124412
999 1 44.5990642162 3.21482804206 2.10290452883
5650 1 47.3318668411 3.52891439975 1.75513107189
5649 1 46.1395577296 2.19258040594 3.46026049184
5651 1 45.8640423961 2.11386175866 0.357810352221
489 1 44.8802434074 0.583174020895 2.31656261785
5140 1 47.2330603443 0.568862347482 1.88936841152
5173 1 50.104324309 0.599727566739 1.75005496835
5682 1 48.7455423544 2.07777557658 3.21647976488
5619 2 48.6020829838 1.78708776142 0.515116548145
5683 1 49.9786300965 3.54933025725 1.65202426264
5205 1 52.8640394019 0.687883645572 1.54682824682
5714 1 51.539564013 2.11952666984 3.05404115199
5746 1 54.3824645799 2.12118021227 2.88918416731
5652 1 51.2904954132 2.10262756414 0.17497485006
5715 1 52.8398154487 3.5400083322 1.52207152987
5684 1 54.2055347115 2.115087086 0.0318645453079
5237 1 55.7342168157 0.693166244003 1.37091466052
5778 1 57.233860902 2.12470996168 2.72919056747
5747 1 55.7190911039 3.5486651553 1.37808657939
5269 1 58.5693753995 0.694254472785 1.20104314852
5779 1 58.5708892422 3.55414557241 1.22423419736
5301 1 61.4244796326 0.701340035934 1.0487067096
5810 1 60.0826834633 2.12630055914 2.56242162612
5811 1 61.429222281 3.55530228284 1.05996394098
5331 1 64.4624930626 0.70007875769 3.72482194465
5333 1 64.2908712541 0.700398316623 0.885725137231
5842 1 62.9461477315 2.12846306631 2.39184197765
5841 1 64.4711395077 3.55570746418 3.72269925712
5843 1 64.3014973446 3.56350382722 0.893005479194
5875 1 65.8088617078 2.12762257461 2.2163182176
5364 1 67.3205462896 0.698724957908 3.54599207571
5366 1 67.1517447931 0.701388244249 0.708212693315
5908 1 68.6633881871 2.12938447978 2.03629650666
5874 1 67.3268112386 3.55562828304 3.54447414659
5876 1 67.1564989961 3.56060111563 0.711919107593
5397 1 70.1697978321 0.699358152379 3.36359666965
5429 1 73.0090704431 0.70674741245 3.1789498379
5940 1 71.5079468161 2.13559244116 1.8532376006
5334 1 70.0058674672 0.703246404535 0.525462337598
5367 1 72.8569189421 0.709796101725 0.344142584391
5907 1 70.1681328079 3.55803355742 3.36361452828
5939 1 73.0045702374 3.56977725013 3.18215983043
5844 1 70.0045828687 3.56231548952 0.529695623825
5877 1 72.8527259856 3.57202333456 0.348539746112
5461 1 75.8330975189 0.715395081713 2.99133835768
5972 1 74.3534028546 2.14769493605 1.67239575268
5399 1 75.7220417846 0.712235788988 0.185319533477
5971 1 75.8410778304 3.59951543581 3.0042840526
5909 1 75.7145157969 3.57596182631 0.185523815791
5493 1 78.723176867 0.728940701509 2.9412881851
6004 1 77.2236420163 2.14429079962 1.54166354562
6036 1 80.0677167844 2.13587533172 1.39101193693
6003 1 78.7465426629 3.55175477947 2.90151334132
5431 1 78.5539868846 0.727769909705 0.0190168494087
5941 1 78.5622073115 3.56668411133 0.0246561012009
6068 1 82.8756468498 2.10992383512 1.19329707614
5525 1 81.5465645619 0.691660490244 2.74386331806
6035 1 81.5801614747 3.54977577069 2.76056587021
6608 1 84.2327341235 3.57062004953 2.57113251003
5590 1 84.5107034076 0.713827453311 2.49151748155
6067 1 86.2901651953 2.46791986386 3.31698594889
5527 1 85.5796931193 2.2016359903 0.888204204413
6120 2 87.559538507 3.33322018675 1.08847471984
6117 2 88.1576957112 0.9609474883 3.19063806031
5609 1 89.5594314597 2.40322435795 1.46279368274
9 2 90.6613475779 0.168962544809 1.31027489375
518 1 1.32545340503 4.93775054094 0.86634494981
1059 1 2.72041921258 6.40955021008 2.34164417527
1028 1 1.38109472249 7.8853863859 0.50825259864
7140 1 0.0434715432599 6.77723534235 2.28535424076
517 1 1.35446224437 4.96647309667 3.73494392874
550 1 4.26223141348 4.98457307297 1.10512182333
582 1 7.09613768655 4.97450120741 1.3091642207
1060 1 4.24425523982 7.84516148757 1.12420765795
1091 1 5.56213811365 6.4034696674 2.63764451789
1092 1 7.09766899662 7.83065038928 1.31177568077
614 1 9.92365759793 4.97334352078 1.46739233926
1123 1 8.40997145365 6.40045744711 2.81150308093
1124 1 9.92858833031 7.82546293025 1.4670550672
646 1 12.7692633032 4.96881053677 1.63033468735
1155 1 11.2626533173 6.39779031605 2.97540719452
1156 1 12.7730315705 7.82732046618 1.62880303303
1157 1 11.4387097265 6.39944504001 0.120989239393
1187 1 14.109168295 6.39694265422 3.13707594383
1189 1 14.279214979 6.398434046 0.285276778464
678 1 15.6153036909 4.96928478548 1.79474740122
1188 1 15.6173238427 7.82644260732 1.79339170023
1221 1 17.1247441832 6.39830401978 0.452675744716
1219 1 16.9544837808 6.3971601878 3.30290905397
710 1 18.462592404 4.97009371586 1.96250394564
742 1 21.3092173271 4.9710020706 2.13036257688
1220 1 18.4621089958 7.82607962585 1.96059417895
1252 1 21.3078310738 7.82575839082 2.1275626911
1253 1 19.9715697707 6.3987938762 0.621043443146
1251 1 19.7991935276 6.39810216436 3.47048059537
774 1 24.1532538591 4.9710243824 2.29641528292
1284 1 24.1546528725 7.82475856507 2.29415740494
1285 1 22.8195401865 6.39886130155 0.78762268207
1283 1 22.6430625058 6.39958476427 3.63732474315
1315 1 25.4856972674 6.39706709621 3.80394685737
1317 1 25.6677720402 6.397160421 0.954315346684
806 1 26.9981013522 4.96919439308 2.4645263026
1316 1 27.0011779004 7.82270013826 2.46210538108
1349 1 28.5156532423 6.39554748749 1.12205021461
838 1 29.8440894652 4.96887553587 2.63431191207
870 1 32.6852941847 4.97020760325 2.80752353115
1348 1 29.8459262742 7.82115455634 2.63352326668
1380 1 32.6831568799 7.81537334614 2.8125732872
1381 1 31.362598335 6.3948214778 1.29027886439
902 1 35.509416476 4.95862834889 2.99784326567
904 1 35.7328980273 4.97389500657 0.117497730441
1412 1 35.5066951122 7.8082960277 2.98030786211
1413 1 34.209885738 6.39566180979 1.45689137307
1414 1 35.7715587394 7.87429866502 0.144009671461
1445 1 37.0290103073 6.37836714521 1.64116094256
934 1 38.276698385 4.88781330377 3.25013245796
1444 1 38.150476824 7.83922553075 3.19527197803
1477 1 39.5954875564 6.30461653145 1.88314398395
936 1 38.6147144534 4.95034115318 0.279786451874
1446 1 38.5797314925 7.86656222157 0.338916283736
1510 1 43.7084502477 5.3633428087 2.86669503543
966 1 40.9581000394 4.70948749548 3.47059382609
1509 1 43.3470429614 6.79415470638 1.11988219922
1511 2 41.5636283643 6.70322756013 2.77463556457
968 1 41.4511744869 5.19649663349 0.669146926121
1987 1 41.0551284031 8.00256875647 0.789134568522
6161 2 44.2014432351 8.01811776797 2.79414859004
1000 1 45.6069426739 5.10192441475 0.935878224181
6159 1 46.1928692352 5.05758394058 3.31929944365
6160 1 47.3624097231 6.55330520757 1.87775719528
6669 1 46.2755967191 7.99904638617 3.45939809336
6671 1 45.6380456042 8.07685984578 0.815744105533
6192 1 48.7590089113 4.980122062 3.20251691026
6193 1 50.050411753 6.4588649356 1.69397836707
6129 1 48.4783170259 5.214154546 0.325311520729
6702 1 48.8199166358 7.93405977741 3.21682024552
6639 1 48.463682264 8.00191538085 0.3426529867
6224 1 51.532157887 4.967924611 3.03368007663
6225 1 52.8505491185 6.41258869196 1.53135900158
6256 1 54.3748720397 4.97810694261 2.88565288181
6162 1 51.2821231539 4.97149035117 0.164305112533
6734 1 51.5640690034 7.87158513521 3.05203872224
6766 1 54.3833599393 7.84381327944 2.89684610322
6672 1 51.3487500671 7.89357713485 0.194576579879
6194 1 54.1863597157 4.98196095714 0.0413185735075
6704 1 54.2067118187 7.85130286457 0.0451465080334
6257 1 55.716013355 6.41407587676 1.39018617693
6288 1 57.2306059149 4.98510099969 2.73581736496
6798 1 57.2365870649 7.84233616734 2.74425484981
6289 1 58.5791627683 6.41723907502 1.23708370051
6320 1 60.089221452 4.98456174988 2.57066265287
6321 1 61.4403952688 6.41704976699 1.06943578541
6830 1 60.0974145402 7.84196170285 2.57806652352
6351 1 64.4789045256 6.41321732646 3.72444311664
6352 1 62.9530501208 4.98456262146 2.39601607885
6353 1 64.3078951476 6.42037433129 0.898638144169
6385 1 65.8229799919 4.99129597488 2.22218877462
6862 1 62.9606945349 7.84254234601 2.40211376543
6895 1 65.8363997087 7.84557817427 2.23111628868
6384 1 67.3513976336 6.41889388633 3.54473445159
6386 1 67.1785603327 6.43023684655 0.731015126532
6418 1 68.6543664373 4.97582175246 2.02834049847
6928 1 68.697226061 7.8499757265 2.06694203189
6417 2 70.1681549959 6.28445204517 3.36535559496
6449 1 72.9855108139 6.43334238891 3.18770764104
6450 1 71.5171774641 4.98220731663 1.84537389414
6354 1 70.0073042679 6.42537491009 0.555424789845
6387 1 72.8371658154 6.43775311092 0.372653408863
6960 1 71.4874509813 7.85407059909 1.88908463598
6481 1 75.8792010375 6.41773505997 3.03466407048
6482 1 74.3482557999 5.01292276751 1.68319161953
6419 1 75.7148909711 6.4251277063 0.190698416565
6992 1 74.3543940955 7.84706431222 1.7049050241
6513 1 78.7334151677 6.40943102747 2.88878730761
6514 1 77.2316875104 4.99278468594 1.53392307764
6546 1 80.0640097126 4.97669795421 1.38854469391
7024 1 77.2282655725 7.8406808736 1.53258790767
7056 1 80.0812858412 7.83740755727 1.37457133497
6451 1 78.5678450101 6.42100976551 0.0181960694996
6545 1 81.5439342104 6.37904740383 2.7884586303
6578 1 82.9176045605 5.07144526177 1.22784301695
7088 1 82.7171534507 7.72875740291 1.31262990763
6577 1 84.5783999054 6.58486588873 2.58865082613
6609 1 85.862138361 4.73319972039 1.57705974638
6100 1 87.3573173874 6.7733525571 2.77931660217
6547 2 86.2684787803 6.73574771552 0.790145406854
6610 1 88.2767928437 4.53243231828 3.12617216795
6119 2 89.4340783759 6.17592191861 1.49531684487
6579 1 90.7451581054 4.45394680036 2.79418756965
6630 1 89.4477921798 6.90743717857 3.76585516283
1569 1 2.70970822737 9.22903068664 2.4455838107
1539 1 1.62082818592 10.6753314214 0.734369964098
2079 1 2.91776477126 12.082279122 2.43996687768
1538 2 0.262215385276 9.36004276568 2.00602227163
1537 1 1.05061087263 11.1068263679 3.5609309303
1570 1 4.30931131774 10.6380725413 1.09982619612
1601 1 5.56070621689 9.22943698213 2.65483632156
1602 1 7.09926834802 10.669148011 1.30681150161
2111 1 5.58168539475 12.0750737797 2.67043467941
1633 1 8.41432771669 9.24260139428 2.81851719473
1634 1 9.93367159242 10.6807066567 1.47114378261
2143 1 8.42753073833 12.0865367726 2.83918346882
1665 1 11.2671845195 9.25026164574 2.97680073296
1666 1 12.7746445748 10.6851464429 1.62811712963
1667 1 11.4393134196 9.26001474446 0.118728049543
1697 1 14.1125324377 9.25361368003 3.13643185971
1699 1 14.2814923871 9.2584240635 0.284657608159
2175 1 11.2802384441 12.095900419 2.99222341522
2177 1 11.4380463183 12.1230421781 0.117507541165
2207 1 14.1132478462 12.111945429 3.13795968353
2209 1 14.2805844535 12.1201412229 0.287538657732
1698 1 15.6187698241 10.6857977825 1.79386662118
1731 1 17.1258215355 9.25685285803 0.452298361694
2241 1 17.1275524662 12.1175818067 0.454901189993
1729 1 16.9556043861 9.25376820589 3.30213776247
2239 1 16.9577004585 12.1124205417 3.30295482405
1730 1 18.4632366753 10.6836020711 1.96083384721
1762 1 21.3087168974 10.6801651368 2.12798786787
1763 1 19.9716322866 9.2553255803 0.620136485774
2273 1 19.974209886 12.1127696799 0.622290179312
1761 1 19.7987177106 9.25237982741 3.46928651288
2271 1 19.8009859901 12.1077063508 3.47026217982
1794 1 24.15428813 10.6780348538 2.29421865303
1795 1 22.8196332731 9.25325751385 0.78688137187
2305 1 22.8203069165 12.108626031 0.788723481652
1793 1 22.6430692754 9.25057346233 3.63594814786
2303 1 22.6442560767 12.103898732 3.63743597903
2335 1 25.4833518844 12.105533027 3.80249962914
1825 1 25.4873216991 9.25004492961 3.80227608073
2337 1 25.6664389461 12.1079991552 0.955117341474
1827 1 25.6682665051 9.25223063619 0.954170462647
1826 1 26.9998492582 10.6789322749 2.4609542682
1859 1 28.5169772905 9.25164574107 1.1218008929
2369 1 28.5150277758 12.1089216102 1.12053692033
1858 1 29.8446754404 10.6776833788 2.62920260374
1890 1 32.6861287265 10.6717036942 2.80366386347
1891 1 31.3651624535 9.25122064203 1.28971200151
2401 1 31.363971853 12.1078583026 1.28186513326
1922 1 35.4522640016 10.6453839068 3.01034151068
1923 1 34.1976535138 9.23454888136 1.46200881824
1924 1 35.680009813 10.6754838335 0.0930564594638
2433 1 34.1679230048 12.0979384075 1.42595003189
1955 1 37.1087937357 9.39496529088 1.59083433641
1954 2 38.1857374324 10.3956179874 3.47008660524
1956 1 39.5898188434 10.1538165659 0.337405216686
2464 1 40.1955647014 11.8542543415 3.63971827004
2465 2 36.6638590233 12.0658916521 1.66130208811
1988 2 41.0794546661 9.84322111644 2.33033886904
2019 1 42.4592149266 10.1092240633 0.274730282974
2017 1 41.078862146 11.9274660631 1.29708487146
2497 1 42.5976035692 11.1417093727 3.63697181255
2530 2 43.6276954659 12.0429731431 1.39366453739
2020 1 44.532735676 10.1859920746 2.54798561888
7181 1 45.5519349113 10.8665070711 0.388647396799
6670 1 47.2541781969 9.55631949835 1.84366850277
6703 1 50.0375519892 9.36291375965 1.68646447715
7212 1 48.7749678943 10.8265465676 3.23653223599
7213 1 50.0615133669 12.1588547403 1.64356581403
7149 1 48.5256394038 10.7551111229 0.220401973799
6735 1 52.8819416406 9.29564722034 1.5414828188
7244 1 51.5762706051 10.7335424211 3.05434657405
7276 1 54.4050286214 10.7029452336 2.90753963039
7182 1 51.3647159111 10.7338340986 0.157819815402
7245 1 52.9014979173 12.1353694896 1.53428557528
7214 1 54.2277514528 10.707142153 0.036973313092
6767 1 55.7299341398 9.27318486055 1.39617957644
7308 1 57.2464222129 10.6955031675 2.75070526901
7277 1 55.7424244591 12.1260118007 1.39659533685
6799 1 58.5863919745 9.27073621198 1.24198826877
7309 1 58.5916211892 12.1229712702 1.24242511144
6831 1 61.4459416876 9.2709246707 1.07290866004
7340 1 60.1023165264 10.6968695351 2.5819887002
7341 1 61.4482990914 12.1236757116 1.07333702489
6861 1 64.4833419538 9.27057927697 3.72782524075
6863 1 64.3118092201 9.27024878138 0.900495927
7372 1 62.9636948067 10.6983904008 2.40403327646
7405 1 65.8290956824 10.6991373928 2.22613808605
7371 1 64.4823593955 12.1285487432 3.73095215738
7373 1 64.3094959339 12.1254052706 0.897272773459
6894 1 67.3541481491 9.2743564252 3.54710599825
6896 1 67.1820262443 9.26632479124 0.733133891441
7438 1 68.6631573722 10.7210412825 2.03416924894
7404 1 67.3358022529 12.1355313807 3.55080486555
7406 1 67.1653043676 12.1321162707 0.716910395818
6927 2 70.1777005415 9.41858232828 3.37014362476
6959 1 72.9998462594 9.27765676656 3.19519001943
7470 1 71.5312416979 10.722288735 1.85416843967
6864 1 70.0121923407 9.27739567463 0.558195302835
6897 1 72.8457411657 9.2661496133 0.379065054121
7437 1 70.1832950807 12.1404092944 3.37274278169
7469 1 73.0324967673 12.1334325351 3.19989454394
7374 1 70.0168831707 12.1367483808 0.537636126916
7407 1 72.8694120234 12.1312390257 0.362399990484
6991 1 75.8800992311 9.26466937179 3.03474144006
7502 1 74.3688649042 10.6953519538 1.69974295397
6929 1 75.7120507635 9.26565797777 0.19190621724
7501 1 75.8849843714 12.1216091152 3.03591015508
7439 1 75.7156841751 12.1209452732 0.187685639982
7023 1 78.7361027889 9.26323709713 2.87926422638
7534 1 77.2235020246 10.6891609132 1.52914431288
7566 1 80.0744753549 10.695785698 1.36250594359
7533 1 78.7244020632 12.1088765593 2.87905834784
6961 1 78.5657317547 9.26546735312 0.0183819923118
7471 1 78.5566361957 12.1127610705 0.0142764262472
7055 1 81.5494571718 9.29464223454 2.75485965209
7598 1 82.920842878 10.7214465403 1.17450077174
7565 1 81.5805262782 12.1062110695 2.72397513465
7087 1 84.2880534073 9.25530072403 2.48582260676
7597 1 84.412694285 12.1122786773 2.61435726956
7120 1 86.6231752907 8.8556816115 2.04499908697
7630 2 85.717102916 10.8809695807 1.16039485966
8139 1 87.5185255811 11.7405423567 2.38863345693
7119 1 88.3001325661 9.55575224561 3.50557104527
7568 1 88.154132739 10.0467942692 0.600423318597
7137 1 89.4942087366 8.38145518053 1.74355051856
7139 1 89.9637930924 10.7748361234 2.26141620681
7090 1 90.710364695 9.83279059518 0.060726094216
2589 1 1.51604028111 13.375434101 0.943646604044
2557 1 2.8318744013 14.9011986619 2.48551103574
2591 1 1.55852903938 16.311678167 1.00199930568
8159 1 1.10565041254 16.2468160482 3.70934334834
2080 1 4.31633886656 13.5262075294 1.13157552609
2112 1 7.1036790466 13.5078455531 1.36152145843
2621 1 5.58275331402 14.9454679831 2.69507651465
2144 1 9.96145248807 13.5170699728 1.51033753562
2653 1 8.44253206734 14.946198149 2.85970748437
2655 1 8.67553792946 14.9321575591 0.0678523084619
2176 1 12.7696880043 13.5480709818 1.63144545296
2685 1 11.2837120342 14.9595719311 3.01045670194
2687 1 11.4153083961 14.9967589996 0.120243608617
2717 1 14.1119922911 14.970420509 3.14492877206
2719 1 14.2743278216 14.9820866821 0.29165158254
2208 1 15.6178577638 13.5460185333 1.79670665929
2751 1 17.1294076607 14.9752190803 0.459899874714
2749 1 16.9605820484 14.9691453607 3.30690897573
2240 1 18.4681347603 13.5431389968 1.96501902924
2272 1 21.3120029952 13.5364586732 2.13187152927
2783 1 19.9825022424 14.9741382557 0.631677289777
2781 1 19.8118815069 14.9687265121 3.47691633202
2304 1 24.1526059395 13.5334955089 2.29827241525
2815 1 22.8242594601 14.9690384197 0.799276344525
2813 1 22.634448466 14.9483664638 3.62723380246
2845 1 25.4919407079 14.9484820389 3.79244384725
2847 1 25.6603648599 14.968378127 0.964492009454
2336 1 26.9951078506 13.5359714442 2.46199977837
2879 1 28.5058843652 14.971170472 1.12557250958
2368 1 29.838314797 13.5390715645 2.62494745464
2400 1 32.6723543251 13.5397774387 2.78924996416
2911 1 31.363727316 14.9677060313 1.27690713785
2432 1 35.3291018413 13.5537151751 2.97137358145
2434 1 35.8121711675 13.568702144 0.110509563465
2943 1 34.1949098027 14.979255841 1.41005283079
2944 1 35.9052003761 16.2749306772 0.104874766123
2975 2 38.016838743 14.6577331717 0.711373706832
2498 1 38.8345709853 12.4976668549 0.0214289858619
3009 1 40.1188626648 14.0532283848 1.57980899239
3005 2 38.6774693591 13.512614786 3.68321112901
3040 1 43.382486637 15.5841963578 1.34976881099
3008 1 42.3580913539 13.6740808655 0.129391547674
3037 1 42.3352063292 13.5190107568 2.89534776057
2494 2 41.2461807154 15.6365955705 2.71553979527
3519 1 41.4786985342 16.2515681726 0.124543355985
3549 1 43.4014197996 16.0825847257 3.74940231276
7180 2 47.3947695136 12.2694824755 1.44733594993
3039 1 44.618191613 14.1707223303 2.63951266486
7689 1 46.4555104718 13.2561053142 3.52535076541
7690 1 47.2599050567 14.8402979725 1.87600749926
7691 1 45.3692908386 13.6048851283 0.38249916683
8199 1 46.1151580531 16.2415001999 3.41563250049
3042 1 45.6656432807 16.1963479529 0.655876867902
7722 1 48.8650477708 13.5246265171 3.23510295458
7723 1 50.1300720266 14.9506734185 1.71492636193
8169 1 48.6075071809 16.2887283506 0.425183752021
7659 1 48.5602940428 13.6761468366 0.201516369969
7754 1 51.6083250967 13.536414495 3.07297296076
7755 1 52.909287503 14.9752849073 1.54596941889
7786 1 54.4167909629 13.5480836384 2.91325663567
7692 1 51.3824230606 13.5650963402 0.156674943227
7724 1 54.2358428306 13.5593736529 0.0362830092177
7787 1 55.7455817991 14.9787684308 1.40162120173
7818 1 57.2521909335 13.5481736315 2.75429964974
7819 1 58.5943288926 14.977660622 1.24557714855
7850 1 60.1036743729 13.5499838918 2.58486558564
7851 1 61.4490714853 14.9784871534 1.07553072929
7881 1 64.4777302586 14.9869066158 3.73420699227
7882 1 62.9628363104 13.5540009272 2.40554921732
7883 1 64.3059637747 14.9826787565 0.8967039646
7915 1 65.8203311062 13.559256 2.2240846124
7914 1 67.3320687624 14.9901110244 3.553397578
7916 1 67.162770028 14.9870436037 0.715296505105
7948 1 68.6760255069 13.563203232 2.04467375009
7947 1 70.1869325808 14.9923163305 3.37479687132
7979 1 73.0454055537 14.9915092978 3.20236132713
7980 1 71.5298262304 13.5634438788 1.86859569393
7884 1 70.01965754 14.9894942612 0.535350347029
7917 1 72.8766514848 14.9879182306 0.360239735052
8011 1 75.9053087194 14.9925008083 3.04150378644
8012 1 74.3857747452 13.5595548401 1.69874128095
7949 1 75.7221122198 14.979653229 0.181548492426
8043 1 78.7251012851 14.9753144104 2.87889509961
8044 1 77.226448791 13.5488544057 1.52847530094
8076 1 80.0527430827 13.5244100091 1.37193148869
7981 1 78.5566140334 14.9714875473 0.00914697518464
8075 1 81.5041939898 14.9165716626 2.8107897265
8108 1 82.8825920091 13.563579707 1.22142818702
8618 1 82.6219063978 16.3071385352 1.31865102768
8107 1 84.2691980969 14.8926101967 2.68437196661
8140 1 85.7235617001 13.5112259224 1.16991556193
8670 2 85.9503851778 15.920815281 1.68908191916
8648 2 88.0958301538 13.7746575689 0.89919021172
7567 1 89.6467580549 12.3049928776 0.364428523861
7648 2 91.1073849903 12.9123048983 2.44386429145
2559 2 90.925585998 15.9467660881 1.49106014707
3099 1 2.67905009212 17.7850993744 2.56642176849
8669 1 1.50479207496 19.2320252321 1.00174543146
2590 1 4.25083679262 16.3944408759 1.19578608593
2622 1 7.10691472352 16.3667491129 1.42908159465
3100 1 4.23034285107 19.223092334 1.23493179133
3131 1 5.56936823132 17.8122516278 2.72846482591
3132 1 7.08961464229 19.2784702107 1.43955563355
3133 1 5.7791175214 17.8188939845 0.0122926173802
2654 1 9.96932818367 16.3979416274 1.55314397404
3163 1 8.42933621388 17.8187947379 2.87773089211
3164 1 9.96088290908 19.2591778652 1.55959938465
3165 1 8.6112446538 17.8312378292 0.193439526016
2686 1 12.7640262362 16.4054126995 1.64411563187
3195 1 11.2898127321 17.8197420926 3.01945897674
3196 1 12.7573965823 19.250439773 1.65090281867
3197 1 11.4038406597 17.8342548132 0.134811986546
3227 1 14.1094147368 17.8261049548 3.1512385408
3229 1 14.2721970334 17.829808496 0.297783248929
2718 1 15.6178124155 16.4006147927 1.80290478686
3228 1 15.6182683186 19.2497805025 1.80535775415
3261 1 17.1308859271 17.8252338304 0.463516416986
3259 1 16.9630899843 17.8229667095 3.31081699622
2750 1 18.4732068564 16.3985288056 1.97203195366
2782 1 21.3302893499 16.4033701223 2.15250586565
3260 1 18.4746796753 19.2468649406 1.97388800593
3292 1 21.3317103346 19.2386697116 2.15408971348
3293 1 19.9853745226 17.8225553408 0.635294339613
3291 1 19.822178215 17.8212370117 3.48598499255
2814 1 24.1511240873 16.3936871724 2.31991974031
3324 1 24.1521223591 19.2469989242 2.32123909372
3325 1 22.832058409 17.8211744048 0.810771596433
3323 1 22.6714555991 17.8203332483 3.6672821511
3357 1 25.652133922 17.8205814235 0.975107858973
2846 1 26.9734098141 16.4020105054 2.48001217388
3356 1 26.972898491 19.2380869391 2.4820049081
3389 1 28.5028680217 17.8200617709 1.12808611175
2878 1 29.8321892309 16.3957357778 2.62856590874
2910 1 32.6728562983 16.3924565407 2.79307607632
3388 1 29.831379505 19.2422486104 2.63209411704
3420 1 32.6747797433 19.2391401738 2.79753928537
3421 1 31.3641691979 17.8163179424 1.28100336062
2942 1 35.4447013952 16.3551623014 2.97312841618
3452 1 35.3984794278 19.2984451552 3.01051107393
3453 1 34.2295693171 17.799274339 1.43782556939
3454 1 35.7161984643 19.2587033527 0.0853099160437
2974 2 37.8487580462 16.5426817464 3.2509518521
3485 1 36.858031166 17.8969896862 1.63829776954
3484 1 38.0715564339 19.2281672492 3.28392320676
3486 1 38.4740929646 19.2563811699 0.343482200236
3517 2 40.2910273619 18.0184585942 0.994915550086
3007 1 42.2763414205 17.7106339977 2.01316101632
3516 1 41.0605132866 19.5029776847 3.07182552252
3550 1 43.7032779115 19.7284715206 1.52866598028
2496 1 44.6228166044 17.6389931289 2.26061662899
8200 1 47.3064251691 17.7664710584 1.92605381602
8709 1 45.9028325634 19.3602974977 3.31779803234
8201 1 45.7798718554 19.1461861957 0.619091537384
8232 1 48.8099393317 16.3461095326 3.2377130746
8233 1 50.1176262643 17.7946997485 1.74250498521
8742 1 48.8256502692 19.212672006 3.26575513673
8679 1 48.6299880859 19.1978260264 0.429842403639
8202 1 51.3829654235 16.4087047051 0.182420307628
8264 1 51.6230862471 16.3908842995 3.08617010992
8265 1 52.9058753634 17.8306043397 1.55694491017
8296 1 54.4188219209 16.4022013823 2.91807752424
8774 1 51.6118243089 19.2452496585 3.0989183784
8806 1 54.4162048723 19.2587594563 2.92367193562
8712 1 51.3613782878 19.2490059816 0.195933875979
8744 1 54.2268582483 19.2600266709 0.0556334471848
8234 1 54.2325971078 16.4112817845 0.0467063033717
8297 1 55.7447131921 17.833446857 1.40749761277
8328 1 57.2541471165 16.4041955592 2.75722543937
8838 1 57.2536461039 19.2610094358 2.75952509287
8329 1 58.5949837813 17.8331923917 1.24866950017
8360 1 60.1039960162 16.4054464537 2.58733857008
8361 1 61.4485714749 17.8348134409 1.07759128618
8870 1 60.1031590482 19.2627582487 2.58793179094
8391 1 64.4726489267 17.8418118069 3.73730388255
8392 1 62.9599891669 16.4098841635 2.40815091709
8393 1 64.3036446519 17.8384664548 0.897993027512
8425 1 65.8172509315 16.4142759196 2.22526534419
8902 1 62.9563760286 19.2661727886 2.40905512757
8935 1 65.8130987604 19.2684239084 2.22627054302
8424 1 67.3284230806 17.842711121 3.55484568683
8426 1 67.1599705899 17.8407737663 0.715245418386
8458 1 68.673742849 16.4159615482 2.0439672109
8968 1 68.6703442667 19.2670876226 2.04380581369
8457 1 70.1847824283 17.8406921698 3.37454533027
8489 1 73.0482544091 17.8397530946 3.20076030539
8490 1 71.5335855173 16.4161524189 1.86678151604
9000 1 71.530810377 19.2632476299 1.86522567382
8394 1 70.0180719538 17.8406027502 0.534364646308
8427 1 72.8799606187 17.8409840846 0.358728158413
8521 1 75.9238001556 17.8353804226 3.03654756174
8522 1 74.3959333667 16.4159498715 1.69688281926
9032 1 74.4023664345 19.261732576 1.69813229319
8459 1 75.7322657804 17.8383218661 0.181029980228
8553 2 78.7130375777 17.8044184624 2.73888280838
8554 1 77.21697262 16.3880128163 1.51048667801
8586 1 80.0680406369 16.3677914563 1.35072015655
9064 1 77.2312361789 19.2720253265 1.51727399121
9096 1 80.0579313376 19.2492528943 1.34667816834
8491 1 78.5615348576 17.8254605964 0.00171294249965
8585 1 81.4484741793 17.7950189222 2.80053758069
9128 1 82.6921290271 19.1817375091 1.2740915949
8617 1 84.4188453882 17.7483111855 2.46054012835
9180 1 87.351332726 17.8315947846 2.2749611276
9607 2 87.1400685468 19.695598976 0.705605272042
3068 1 86.0954939435 17.647934528 0.0122383839108
9179 1 91.4263660448 17.9474459747 2.35546045187
10179 1 88.0461758421 20.0555421023 2.94678450843
9158 2 88.5010834735 16.3894184781 3.73038596467
8647 2 88.3689093102 16.9826478721 0.0908806497054
9097 2 90.6020163113 19.1907015959 0.541491059665
3609 1 2.66991952216 20.6499829283 2.57639138276
3578 1 1.55509234136 22.0955040934 1.01223670497
4119 1 2.72237244541 23.4874417422 2.59518418428
3641 1 5.54398720565 20.6712966192 2.72623692091
3610 1 4.22969898088 22.0803869197 1.20793959583
3642 1 7.06538337031 22.1222668365 1.39052793696
4151 1 5.52253221136 23.5364391792 2.69936600528
3673 1 8.42076590346 20.693043165 2.86435311618
3674 1 9.94158004769 22.1158322379 1.52650702844
4183 1 8.40806197001 23.532861891 2.85450901766
3675 1 8.65080436137 20.7166999176 0.0820581505143
3705 1 11.2825969505 20.6890524341 3.01132863543
3707 1 11.4019756273 20.6570797342 0.128965017485
3737 1 14.1080973864 20.6735896838 3.15043771064
3739 1 14.2708983849 20.6704791254 0.297446295771
3706 1 12.7595041953 22.0933861743 1.64066796579
4215 1 11.267363941 23.5319903172 3.00255656714
4217 1 11.4190808782 23.5180681434 0.12924649355
4247 1 14.1081181703 23.5243341692 3.14602247099
4249 1 14.2743748748 23.5237230459 0.297080023978
3771 1 17.1312063032 20.6739145744 0.464629745315