ITEM: TIMESTEP
30000
ITEM: NUMBER OF ATOMS
10200
ITEM: BOX BOUNDS pp pp pp
0.0 91.5382635842
0.0 28.55
0.0 45.7691317921
ITEM: ATOMS id type x y z
8 2 1.66544691727 2.14401555723 1.14385062327
549 1 2.79426246683 3.58921467071 2.46278149324
39 1 2.85998228208 0.72159549289 2.52576686179
7 1 1.19069127172 2.1577968522 3.69334403022
40 1 4.33229663445 2.17875418846 1.16523074754
72 1 7.07121125425 2.18961918323 1.31131317345
581 1 5.59446938385 3.64315815838 2.64538004863
71 1 5.56576736713 0.714735048123 2.67049501577
104 1 9.87676230026 2.1570409367 1.46270403972
613 1 8.37300035058 3.63200713596 2.79191955937
103 1 8.37253879649 0.708927962363 2.80004034172
136 1 12.7340412755 2.12706281626 1.61757883375
645 1 11.2283255624 3.57002127279 2.95405339492
647 1 11.3992123058 3.56448620827 0.123971385409
677 1 14.0673607912 3.54347314241 3.1070286417
679 1 14.2491149081 3.55527538731 0.284074879862
137 1 11.3843107795 0.697865270058 0.115717446261
167 1 14.0799702622 0.702333099056 3.11716766458
169 1 14.2442129232 0.697310429193 0.279703080965
135 1 11.2188844164 0.702606697464 2.9524475909
168 1 15.5937064275 2.14117950329 1.79675259838
711 1 17.0933871729 3.56012622218 0.457034291955
709 1 16.9277714095 3.57694336242 3.3094835771
199 1 16.9257588112 0.710249604337 3.2878509235
201 1 17.0904425928 0.698728035846 0.444864881443
200 1 18.4227228232 2.14103071387 1.96074732065
232 1 21.2827735625 2.12237923157 2.10798683688
743 1 19.9386293928 3.55344497385 0.613997817938
741 1 19.7913564185 3.53996735815 3.43846439442
231 1 19.7692994233 0.69989902655 3.44506708033
233 1 19.9343960593 0.697988064456 0.609348959444
264 1 24.1378919936 2.11916480265 2.26861517082
775 1 22.7950613222 3.54881439766 0.771759060792
773 1 22.6253926861 3.54775608512 3.61161721763
265 1 22.7926304663 0.692149635281 0.768657958362
263 1 22.6229423388 0.690940697265 3.60466003056
295 1 25.4762991224 0.691046402061 3.76823699307
805 1 25.4764264027 3.54316312325 3.77460236154
297 1 25.6553563595 0.692668361417 0.928261131077
807 1 25.6555196336 3.54604791673 0.931923225822
296 1 26.9956124196 2.11892836608 2.43087990999
839 1 28.5159133619 3.54423301423 1.09041464871
329 1 28.517500444 0.696060411802 1.08579658177
328 1 29.8501251123 2.12248495429 2.59370410381
360 1 32.704446043 2.13196224283 2.753810375
871 1 31.3722547882 3.54717419954 1.25077536605
361 1 31.3758675607 0.703670926333 1.24451660604
392 1 35.549954715 2.16441061897 2.94655955476
394 1 35.7616913965 2.1442099383 0.0685360604425
903 1 34.2399237256 3.55636592288 1.42077176099
393 1 34.2472479841 0.72996627996 1.42158557051
426 1 38.6511384326 2.16840660242 0.247198843518
935 2 37.0813335004 3.5808522094 1.47887554214
967 1 39.7817541541 3.60772245437 1.83219335835
424 1 38.3040403657 2.17591862391 3.14828378596
457 1 39.8169345308 0.725812431641 1.7662753749
425 1 37.0712457471 0.747851081635 1.58879922748
456 2 42.1839971502 3.51136898073 2.22342835952
458 1 41.4629208165 2.22407767011 0.448050263774
5081 1 42.556556663 0.789166265001 2.0466799681
487 1 40.9517249038 2.09632761297 3.4276152893
999 1 44.0729179738 2.82435477627 1.28731435295
5650 1 46.836650135 3.25048722602 1.84238027805
5649 1 45.0813559376 0.877232065092 2.26948963096
5140 1 47.4548282997 0.773751437823 1.84751808698
998 2 44.9583754174 2.72464924902 3.62480217733
5173 1 50.0934365005 0.765408245668 1.69476708521
5682 1 48.8165581351 2.19147317691 3.21421786153
5619 1 48.5004988569 2.2492535867 0.252004240894
5683 1 50.0849398869 3.56694103679 1.69228779366
5652 1 51.4450099343 2.12366752627 0.229947813792
5205 1 52.9472951817 0.716934194886 1.5801365214
5714 1 51.618278569 2.14681589535 3.08077327188
5746 1 54.4599272968 2.12786272483 2.93425057133
5715 1 52.9714518207 3.55951552131 1.59767580895
5684 1 54.2716394869 2.13228992866 0.0696267487987
5237 1 55.7825100059 0.695406331721 1.40244717016
5778 1 57.2795873 2.13138971871 2.75896940337
5747 1 55.7747443209 3.5687361601 1.41525428311
5269 1 58.6074717703 0.694288303048 1.23114002237
5779 1 58.6086454679 3.56717924102 1.25479881373
5301 1 61.4579078486 0.705830913516 1.07457643204
5810 1 60.1191009485 2.13314670955 2.58747118941
5811 1 61.457318958 3.56646695708 1.08536236834
5331 1 64.4994321029 0.715509425044 3.74613699608
5333 1 64.3216975303 0.711865317629 0.911039415086
5842 1 62.9783827342 2.14019424377 2.41569736883
5841 1 64.5016729191 3.57277216068 3.74791144325
5843 1 64.3249056744 3.57577915906 0.916136917037
5875 1 65.8439465318 2.14712798842 2.24141625593
5364 1 67.3618037428 0.71912011472 3.56943225019
5366 1 67.1858363991 0.716315111395 0.739686519394
5908 1 68.7060398389 2.15408068462 2.0642483169
5874 1 67.368501324 3.58267527782 3.56742493968
5876 1 67.19499553 3.58369206082 0.742178538957
5397 1 70.2162701717 0.71929776234 3.3908679798
5429 1 73.0602559369 0.719126131588 3.20884315506
5940 1 71.5519423099 2.15672563188 1.88193693296
5334 1 70.0408939758 0.715813880412 0.561701718366
5367 1 72.8911325761 0.717846607684 0.379860071496
5907 1 70.222796668 3.59468883665 3.38517823851
5939 1 73.0582997662 3.59662483591 3.20383590643
5844 1 70.0440761596 3.58664174558 0.561739533457
5877 1 72.8904364247 3.59218287655 0.37868048524
5461 1 75.8834521874 0.719237850321 3.01657517191
5972 1 74.3988270242 2.16046177256 1.69916369126
5399 1 75.7585113346 0.704387506036 0.220356855887
5971 1 75.8935427205 3.61776570238 3.02618807153
5909 1 75.7590279113 3.58416505825 0.205141459948
5493 1 78.7512826616 0.730888586153 2.94092316352
6004 1 77.2632984664 2.15125760081 1.55949583195
6036 1 80.0992665115 2.13145309134 1.41094573968
6003 1 78.7940510986 3.57693111956 2.90824798921
5431 1 78.5952271721 0.695227729996 0.0622021375228
5941 1 78.5992833149 3.56495141518 0.0350047436554
6068 1 82.8870349327 2.12543620526 1.19887109491
5525 1 81.5879016748 0.702465261515 2.77514769461
6035 1 81.6279164721 3.59816320183 2.73156048543
6608 1 84.5068324176 3.6578005851 2.40007380126
5590 1 84.5182368206 0.769260038153 2.44892509471
5527 1 85.6816071676 2.23337173396 0.919510653608
6117 1 87.1656591714 0.946069233076 2.28380444057
6609 1 87.3911669972 3.81388462439 2.37345857206
6120 2 88.0971951901 2.1191059709 0.606040413297
6097 2 90.6903545325 0.759595541715 3.27684933646
6610 1 89.3845001762 2.41794362248 2.46468211049
6579 1 91.4285021514 3.62253085869 1.51418894951
518 1 1.54467270071 4.99731918044 0.765584992858
1059 1 2.70650747088 6.37596424927 2.51206081944
1028 1 1.50466423833 7.80939740705 0.999697769191
7140 2 0.142684549049 6.11386625453 2.25920355173
517 1 1.19985464719 4.86629885012 3.76590306847
550 1 4.26715021595 5.02260029364 1.13578491664
582 1 7.07516711113 5.12895095612 1.30727694005
1060 1 4.23165531292 7.82211442656 1.17753973715
1091 2 5.3901713076 6.42641517943 2.80128202578
1092 1 7.06372934692 7.70376755292 1.31587391285
614 1 9.89795548128 5.00370820909 1.46194272433
1123 2 8.52871622961 6.41336999625 2.96259024954
1124 1 9.89586575552 7.81627183604 1.46329782202
646 1 12.7377914076 4.98692771738 1.62118128008
1155 1 11.2366175811 6.4077699524 2.96829967794
1156 1 12.7406825423 7.8241513574 1.62088221274
1157 1 11.4076808689 6.40850840839 0.113020998081
1187 1 14.0733216777 6.41424786691 3.11354309807
1189 1 14.255174262 6.40125843063 0.282868195865
678 1 15.5903628693 4.97764304997 1.80349345376
1188 1 15.5998465032 7.8113231625 1.80113165002
1221 1 17.0959322741 6.39300331585 0.458345606943
1219 1 16.9297556354 6.37599670159 3.31350327034
710 1 18.4327273694 4.9768381089 1.96881193197
742 1 21.2868787907 4.97645884524 2.11322753637
1220 1 18.4259262609 7.81154275741 1.96605389178
1252 1 21.2856269973 7.82928025091 2.1149558892
1253 1 19.9403126431 6.40030832547 0.616464416411
1251 1 19.7925065819 6.41288019268 3.44253364356
774 1 24.1392469826 4.97322133144 2.27347436805
1284 1 24.1381794693 7.8286116428 2.27750332162
1285 1 22.7966483165 6.40394296744 0.775123776233
1283 1 22.6270984687 6.40140112311 3.61669910131
1315 1 25.4754662566 6.39695189846 3.77995972555
1317 1 25.6549015336 6.40041583926 0.938081737249
806 1 26.9936680939 4.96878049842 2.43745257512
1316 1 26.9897011995 7.82489979907 2.44432345139
1349 1 28.511007663 6.39573578929 1.10242739946
838 1 29.8453662182 4.96679833186 2.60344156358
870 1 32.6979628522 4.96432076738 2.76585692815
1348 1 29.8331548489 7.82372204578 2.6129237519
1380 1 32.677323806 7.82228736888 2.78807156222
1381 1 31.3666590955 6.39588522073 1.27105911354
902 1 35.5226255468 4.93859304229 2.96204450012
904 1 35.7664122793 5.0160888682 0.0860740438876
1412 1 35.5291807697 7.81066498626 2.9741394426
1413 1 34.2438257746 6.39453421946 1.45235223467
1414 1 35.7991567607 7.88498716465 0.163374827311
1445 1 37.0510653902 6.37064374455 1.62671631318
934 1 38.2649397131 4.96056316312 3.21302095147
1444 2 38.1257292011 7.67822254566 3.27407361619
1477 1 39.7761091518 6.37386964933 1.93249486767
936 1 38.6858979349 5.06700025996 0.283992587453
1446 1 38.7331695141 7.87724605976 0.401687153924
1510 1 43.9193034804 4.9530230813 3.14859496709
966 1 41.0200363016 4.98043478509 3.46848135854
1509 2 43.4856603778 6.43962805208 1.17884014378
1511 2 41.2352014703 7.52027282217 3.53462978457
968 1 41.5723247951 5.17355444828 0.504508646497
6161 1 43.6573332229 7.83707032483 3.14889291928
1987 1 41.2901233306 8.12261056387 1.26927426912
1000 1 45.3689208127 4.7700175182 0.420565962246
6159 2 46.3630367395 5.20239893887 3.54704040565
6160 1 47.276334422 6.24777367901 1.78467295648
6669 1 46.1902040714 7.68608458331 3.38844562099
6671 1 45.4929138165 7.51064476461 0.656485126615
6192 1 48.7824581672 4.89209488665 3.2170788362
6193 1 50.0381383235 6.3694159268 1.73740876521
6129 1 48.3688723256 4.80497548216 0.305101979781
6702 1 48.8508847893 7.81408534805 3.23432190898
6639 1 48.4848677628 7.68200852269 0.262530165885
6162 1 51.4973316352 5.07713576695 0.307099267567
6224 1 51.615845711 4.97965185572 3.07017227964
6225 1 52.9317811112 6.46879018343 1.60726119832
6256 1 54.4428582959 5.00752417716 2.9364915441
6734 1 51.5343523792 7.86233963225 3.07597243588
6766 1 54.4167312627 7.87817085908 2.934836882
6672 1 51.3214964224 7.83016514151 0.231314005103
6194 1 54.2497477445 5.02207862846 0.0847815688647
6704 1 54.2396662861 7.86829289538 0.0753487440739
6257 1 55.7583980814 6.44228452156 1.42944640983
6288 1 57.2736081669 5.00191271032 2.76730134879
6798 1 57.2666904891 7.86577982361 2.76745402054
6289 1 58.6106543795 6.4355611167 1.26905152954
6320 1 60.1219228983 4.99665411503 2.59700694909
6321 1 61.4634241985 6.42775934799 1.09471731785
6830 1 60.1222976715 7.85744951778 2.60000793482
6351 1 64.5028187149 6.42511986038 3.75015998355
6352 1 62.9791721214 4.99611375247 2.42103673154
6353 1 64.3219761309 6.42499806281 0.916431870831
6385 1 65.8497958998 5.00520912246 2.24339652691
6862 1 62.9827560046 7.85123502909 2.42428627922
6895 1 65.8503577786 7.84843268679 2.24256593472
6384 1 67.3767587805 6.43512966187 3.56581841712
6386 1 67.1942692775 6.42765579855 0.741253609851
6418 1 68.7081771816 5.00921860454 2.07377567472
6928 1 68.7140380715 7.86018288792 2.06873207345
6417 1 70.240008222 6.45783649621 3.39293298176
6449 1 73.0621279243 6.47588894158 3.20193646426
6450 1 71.5636295786 5.02166537046 1.88611261347
6354 2 70.0367001434 6.42330504156 0.548838725608
6387 1 72.9032157937 6.44057551597 0.373500063653
6960 1 71.5545484598 7.8543152665 1.86856734486
6481 1 75.925437376 6.45737178905 3.05639004764
6482 1 74.4028264015 5.03393257777 1.70172551018
6419 1 75.7736365429 6.43468656937 0.198092792839
6992 1 74.4371221988 7.85011028565 1.69183940502
6513 1 78.7907996484 6.42704573423 2.88705817326
6514 1 77.2781275801 5.01142597337 1.54609885838
6546 1 80.1148466378 5.00308537779 1.37507908873
7024 1 77.2893448803 7.85932464931 1.54056397544
7056 1 80.1354830623 7.84645745841 1.36537755803
6451 1 78.6145204999 6.42829155663 0.00864853632849
6545 1 81.6619454166 6.44467281547 2.67702353901
6578 1 82.8630005376 4.97165147826 1.08726283957
7088 1 82.9245080202 7.85173995824 0.965521254581
7118 2 84.4091479819 6.25905944986 2.0685371634
6577 1 85.9863654452 5.03217637414 0.730000426808
7120 1 85.8849571921 7.86153651446 0.838392339654
7138 1 85.9299924225 5.05718316535 3.7400791274
6100 1 88.03842273 6.63525101836 1.63393995269
6119 1 88.8506263302 4.29108005899 0.552729092428
7137 1 90.4700357578 7.873095685 1.48918175298
6630 1 89.9288198731 4.58498978599 3.15741280035
6607 2 88.2327080429 5.87534603338 3.7391649851
1569 1 2.61564038994 9.21495300186 2.54920416591
1539 1 1.36245020491 10.5620134924 0.941737826842
2079 1 2.5631700299 11.9912237697 2.54237206828
1570 1 4.21251279666 10.6245666277 1.19120423659
1601 1 5.54043047061 9.18039923603 2.67014128111
1602 1 7.04665994032 10.616736557 1.33583330039
2111 1 5.49779723963 12.0361284433 2.71328166336
1633 1 8.36885740765 9.18044853511 2.80407152889
1634 1 9.87358599574 10.65175787 1.46867689953
2143 1 8.38378906342 12.0523344534 2.85292091241
1665 1 11.2337621604 9.24113267359 2.95892710501
1666 1 12.7373642807 10.6802494733 1.6190374397
1667 1 11.3960845218 9.25056758853 0.124845127254
1697 1 14.0884067745 9.24743961119 3.1252729969
1699 1 14.2521918834 9.2523473845 0.283956625095
2175 1 11.2371318091 12.079595131 2.98394919217
2177 1 11.3735138954 12.1106009648 0.114720702921
2207 1 14.0799018069 12.1085822186 3.12285880468
2209 1 14.2380131369 12.1145388584 0.278894810576
1698 1 15.5898349822 10.6818507256 1.78571064116
1731 1 17.096095935 9.25256926356 0.450061128943
2241 1 17.0939775192 12.1158870238 0.444098758816
1729 1 16.9303593704 9.24111307284 3.2967871958
2239 1 16.9294577879 12.114262573 3.28593374079
1730 1 18.434062027 10.682939394 1.95202182759
1762 1 21.2839098064 10.6855925069 2.1153703419
1763 1 19.939189968 9.25374183033 0.616285391683
2273 1 19.9460415336 12.1164563114 0.612068569753
1761 1 19.7731410423 9.25041908394 3.45582199477
2271 1 19.7780378988 12.1158752314 3.45189268577
1794 1 24.1359791785 10.6883238797 2.27953526668
1795 1 22.7963027004 9.26014390617 0.77783613557
2305 1 22.7971553069 12.1171775711 0.776788288073
1793 1 22.6256270954 9.25740894911 3.6177273067
2303 1 22.6241191956 12.1162987448 3.61784533601
2335 1 25.4652547176 12.1225605115 3.78420236943
1825 1 25.4709767517 9.25599830895 3.78166839685
2337 1 25.6492965202 12.1205562031 0.944984546307
1827 1 25.6528207141 9.25919546871 0.943915001751
1826 1 26.9833434373 10.6920657978 2.44914505979
1859 1 28.5030385577 9.25855503382 1.11266531866
2369 1 28.4971093984 12.1239818915 1.11738136657
1858 1 29.8234665781 10.6932167837 2.62255949853
1890 1 32.6567394979 10.687200192 2.80585105617
1891 1 31.3513885153 9.25686395609 1.28744778263
2401 1 31.3364219911 12.1228667879 1.29256724492
1922 1 35.6252960546 10.7742146052 2.88975411691
1923 1 34.2192381521 9.25498652936 1.50765033737
1924 1 35.5759333785 10.6652553024 0.144448555734
2433 1 34.0770166422 12.1381414417 1.4986487406
1955 1 37.1704755323 9.23960350298 1.73043261749
1954 1 38.5421651718 11.1810815823 3.01549025798
1956 1 39.5634316003 10.2702155008 0.562584809651
2465 2 37.5229874402 11.3901175756 0.892445512765
1988 2 40.880020219 10.2967819505 2.51853574138
2019 1 42.51038544 10.3478690752 0.680929323542
2497 1 43.3595216566 10.9763729556 2.98048965468
2020 1 44.968787078 9.46863776764 2.12594768315
7181 1 45.3079256623 11.3673973013 0.764602727018
6670 2 47.3667199459 8.91166204802 1.7187071651
7179 2 45.899726735 11.1134788545 3.51716625879
6703 1 49.9502067937 9.29888570346 1.70754241883
7212 1 48.5181961705 10.7344566024 3.21920885774
7213 1 49.9064454508 12.1210607426 1.68820802344
7149 1 48.3988367115 10.6497433184 0.314681936272
6735 1 52.8579843835 9.27695316232 1.5619970663
7244 1 51.4969607172 10.6906558352 3.04111519256
7276 1 54.3791801341 10.7104873704 2.91428261111
7182 1 51.2946830531 10.6926169492 0.219778851683
7245 1 52.8313922831 12.1244932145 1.55719453683
7214 1 54.2059577728 10.6975177064 0.068693193678
6767 1 55.7418528808 9.29001293649 1.4218885526
7308 1 57.2559179079 10.7113966947 2.76174737734
7277 1 55.7242914661 12.1265777897 1.41442990783
6799 1 58.6047161921 9.28385262757 1.2665244667
7309 1 58.5985160687 12.1279538799 1.26063409823
6831 1 61.462711315 9.27731457609 1.09463858866
7340 1 60.1196162782 10.7059392553 2.59706063168
7341 1 61.4634374115 12.124866101 1.0914684402
6861 1 64.5052082826 9.27524535981 3.75093622839
6863 1 64.3260347535 9.27272085802 0.916849107178
7372 1 62.9840178916 10.7011609543 2.42315967009
7405 1 65.8495693488 10.6975826567 2.24451901903
7371 1 64.5056922743 12.1250352065 3.75172967697
7373 1 64.3267936191 12.1218071961 0.916010305367
6894 1 67.3732431966 9.27365076234 3.56792783092
6896 1 67.1982308695 9.26773775643 0.741079794227
7438 1 68.719879442 10.6945160279 2.06730726587
7404 1 67.3738989304 12.1197977847 3.57502172166
7406 1 67.1942443848 12.1219028055 0.743237261135
6927 1 70.2440264701 9.27679458796 3.38387020296
6959 2 73.0858848811 9.29192810969 3.0781066506
7470 1 71.562176184 10.7078409859 1.87358112741
6864 1 70.0525239873 9.27469859282 0.558410869754
6897 1 72.9083684025 9.27254096928 0.378123378886
7437 1 70.250987981 12.1070401954 3.40377398085
7469 1 73.096935753 12.1027150929 3.22343258107
7374 1 70.0564470219 12.1247578593 0.564866501395
7407 1 72.9185194271 12.125383348 0.386733054507
6991 1 75.9415272177 9.2803399737 3.04996592138
7502 1 74.4508791217 10.712481944 1.69887062086
6929 1 75.7810348735 9.27907808891 0.201691745159
7501 1 75.9494699086 12.1126338866 3.06196394774
7439 1 75.7845653876 12.1289780892 0.216329033825
7023 1 78.8197296174 9.26686860086 2.89281781858
7534 1 77.3053283049 10.7019261922 1.55191380147
7566 1 80.1894790727 10.6944856253 1.40134127701
7533 1 78.8344213455 12.1325823207 2.88751447755
6961 1 78.63662942 9.28868052135 0.0276302909754
7471 1 78.6614042394 12.133902991 0.0494260695309
7055 1 81.6556106114 9.18027610674 2.7616161605
7598 1 82.9351871592 10.5404096297 1.36692904144
7565 1 81.7037114442 12.0997913532 2.80640092555
7535 2 84.1033591868 11.9323303551 0.167458324755
7087 1 84.3614759025 8.95969528856 2.56006795808
7630 1 85.8394088118 10.456490714 1.41961883452
7119 2 86.6062125709 8.49807908651 2.88779335622
7599 2 87.3516045296 11.6047036233 0.131885495602
7597 1 84.6071381918 11.9892744156 2.7700846855
8139 1 87.6280913353 11.9850616868 2.52445597484
7568 1 88.2927126662 9.55602002768 1.61589173272
6627 2 90.4193867821 8.91758583236 3.4131932172
7090 2 90.5693539987 10.2861121771 0.653554862742
7648 1 91.2970200318 12.1502866897 2.26985064726
2589 1 1.44300965586 13.4803902862 0.963378845773
2557 1 2.59846367777 14.8975520558 2.5543995842
2080 1 4.15474090665 13.4575442451 1.24896395771
2112 1 7.04381191883 13.4558945992 1.4225201818
2621 1 5.49374634535 14.913192418 2.73959559691
2623 1 5.66971193587 14.9078040084 0.0829847577481
2144 1 9.90250263739 13.4952741622 1.52006979606
2653 1 8.38920859016 14.9347475486 2.87961805891
2655 1 8.59347728127 14.8995359169 0.106545288836
2176 1 12.7201381686 13.5371159214 1.61949425287
2685 1 11.240148039 14.9452817526 3.00561050087
2687 1 11.3415159942 14.9818001038 0.119167589299
2717 1 14.0738158005 14.9612002047 3.12518214356
2719 1 14.2230723172 14.9702951542 0.275793496295
2208 1 15.5810349748 13.5423076426 1.77972594078
2751 1 17.0907762799 14.9711357088 0.440904347901
2749 1 16.9281066304 14.9693961349 3.28377843778
2240 1 18.438031499 13.5457248096 1.94668924641
2272 1 21.2906297049 13.5493564269 2.11461807957
2783 1 19.9519840821 14.9771115066 0.611492120159
2781 1 19.7840129452 14.9782329184 3.44914194836
2304 1 24.133065256 13.5509630433 2.2789445616
2815 1 22.8011394216 14.9811478571 0.775568531085
2813 1 22.6319930055 14.9920840215 3.61466838551
2845 1 25.4523403829 14.9975956118 3.78142498835
2847 1 25.6440051181 14.9843526337 0.944355251926
2336 1 26.9764954679 13.559015149 2.4527326222
2879 1 28.4918798621 14.9863992327 1.11790252987
2368 1 29.8213464554 13.5631333563 2.62857017313
2400 1 32.641161534 13.5774065015 2.82259774721
2911 1 31.3423813202 14.9851762587 1.28584960388
2432 1 35.4819996132 13.5494981661 2.9919535889
2434 1 35.714868506 13.4371073009 0.191737726456
2943 1 34.1945195337 14.9623617968 1.45924212347
2975 1 36.9340710563 15.0512674142 1.55695697322
3009 1 39.4022550367 14.5880528538 1.30347109205
3005 2 38.0110638894 13.7758329704 3.1270880904
2017 1 41.0553668548 12.3062134679 1.55868216079
2530 1 43.42370633 12.843760657 1.25333148586
3519 1 41.5421882499 16.2021810209 0.261057972641
3039 1 42.9826990963 13.3998692739 3.52639282162
3037 1 41.5388403693 14.6425571467 2.16028314347
3040 1 43.759128819 15.205085839 1.67842767471
7180 2 47.2864949305 12.361266831 1.21555283843
7689 1 45.3967345197 13.2238973872 2.81604116429
7691 1 45.5827119916 13.8081010529 0.417633992446
8199 2 45.852386699 15.4359727879 2.68322429377
7690 1 47.6928045438 14.7902723069 1.78271769895
7722 2 49.0172278119 13.4658559723 3.50847412342
7723 1 50.0536157412 15.0014944349 1.72761010438
7754 1 51.5325953804 13.5387678049 3.08066364888
7755 1 52.850832554 14.9618036662 1.56615595257
7786 1 54.37774133 13.5443039594 2.91904014381
7692 1 51.2736767788 13.5376053506 0.208140099979
7724 1 54.1955299347 13.5367150418 0.0624392236244
7787 1 55.7228070048 14.9670023642 1.41378493164
7818 1 57.247352262 13.5519011903 2.76084094799
7819 1 58.5954127596 14.9717604169 1.25623854945
7850 1 60.11783071 13.5531183231 2.59502072756
7851 1 61.4637148869 14.9719199848 1.08809403965
7881 1 64.5052314536 14.9758716796 3.75155733336
7882 1 62.9841090622 13.5501847349 2.42178775818
7883 1 64.3279700062 14.9713217146 0.915732512812
7915 1 65.8493255587 13.5471096165 2.24726604281
7914 1 67.3697904898 14.9731466098 3.57591887433
7916 1 67.1929060327 14.9714329515 0.743974062778
7948 1 68.7179418546 13.5434621918 2.07576393277
7947 1 70.2356648948 14.9706819701 3.40171254468
7979 1 73.0995192186 14.9757864009 3.22734054142
7980 1 71.5812835884 13.5430587921 1.89935775153
7884 1 70.0545721517 14.9717626519 0.568501598862
7917 1 72.9169434287 14.9725999056 0.392109846878
8011 1 75.9745601968 14.9850510651 3.06112247465
8012 1 74.4419220578 13.54674943 1.72875779818
7949 1 75.7789090902 14.9674316914 0.212498438682
8043 1 78.8404921697 14.995525183 2.88378663436
8044 1 77.3131563694 13.5531928148 1.55688676456
8076 1 80.2157809412 13.5564694448 1.38836263639
7981 1 78.6585406057 14.962553877 0.0344702747843
8075 1 81.72569311 15.0206450999 2.71643301133
8108 1 83.0455867651 13.5843214745 1.25026594707
8107 1 84.4994655755 15.0003366271 2.5434883118
8140 1 85.7983753387 13.3258547373 1.19856802194
8670 2 86.7127093954 15.3198911423 2.11709300994
8648 2 89.3709226675 13.3972705997 1.6435535788
2559 1 91.4105880245 14.7641318905 2.36702596073
8647 2 90.229848272 16.2781101465 1.27152975921
2591 1 1.33165872524 16.3732475774 1.02959390863
3099 1 2.60193082856 17.7635195782 2.56502327441
8669 1 1.30072841498 19.1196112584 1.01930906971
2590 1 4.14144185975 16.3584560691 1.27147840735
2622 1 7.05164045518 16.3671275567 1.51341390529
3100 1 4.14628303182 19.1977487864 1.26292564921
3131 1 5.48414709232 17.7836871785 2.74234290736
3132 1 7.029745306 19.268045251 1.49360583054
3133 1 5.69971959085 17.7920222223 0.0880634472819
2654 1 9.91087428401 16.3868924517 1.57693917149
3163 1 8.3836922358 17.836215442 2.92077441855
3164 1 9.9069478338 19.2576124591 1.57695442553
3165 1 8.55107467986 17.8285360452 0.244184164541
2686 1 12.7155210596 16.3896747866 1.62610424372
3195 1 11.2583975983 17.803652691 3.0016816291
3196 1 12.7148986159 19.238116324 1.62346652237
3197 1 11.3320232533 17.8158539199 0.127778411548
3227 1 14.071691875 17.8154005573 3.12542159921
3229 1 14.2190139989 17.8141124953 0.274559069257
2718 1 15.5759727196 16.3921703615 1.77877642895
3228 1 15.5741055882 19.2400412119 1.77467048218
3261 1 17.0868593062 17.8172902443 0.436603577593
3259 1 16.9251913964 17.8189240018 3.28080668414
2750 1 18.4388560944 16.3999316094 1.94481351302
2782 1 21.3042153723 16.4188112381 2.11788135598
3260 1 18.4340899824 19.2440440606 1.93891131631
3292 1 21.3051739535 19.2484116929 2.10588069911
3293 1 19.9515471566 17.824931084 0.604883958949
3291 1 19.791279846 17.8339494473 3.44541922113
2814 1 24.1327184474 16.4264168129 2.275365731
3324 2 24.1450290083 19.2528413214 2.13031361849
3325 1 22.7890348587 17.8161357148 0.751923659144
3323 1 22.6472352215 17.8556332317 3.61059604672
3355 1 25.4371305513 17.8605198598 3.77510716479
3357 1 25.6601240698 17.8188466359 0.92101031192
2846 1 26.9621063039 16.4265362843 2.45433857971
3356 1 26.9645457516 19.2546036583 2.43950054844
3389 1 28.4949285161 17.834701016 1.10873846184
2878 1 29.8251351775 16.4160838754 2.62268718565
2910 1 32.6738279746 16.4099927659 2.79551743681
3388 1 29.8367048751 19.25439972 2.61140604597
3420 1 32.6850356811 19.2590655105 2.776412422
3421 1 31.3563983263 17.8303888907 1.27297188182
2944 1 35.6950747682 16.3817426902 0.069244622852
2942 1 35.4416564128 16.442137224 2.97374055505
3452 1 35.5410366999 19.2700916183 2.93717673632
3453 1 34.1937775818 17.8414377829 1.42622892262
3454 1 35.7440335674 19.2552243004 0.0761133513368
2974 1 38.1829075565 16.365378452 3.10457829791
3485 1 36.9346851285 17.8052526075 1.61569269395
3484 1 38.4206642379 19.2052285025 2.94556393766
2976 1 38.6085335484 16.567095951 0.381521742763
3486 2 38.3845000367 19.0412050054 0.151252976628
2494 1 40.2891359685 16.9681323491 2.38397954787
3517 2 41.6886875331 18.6748840389 0.518697451347
3007 1 42.5143094896 17.1239888606 2.17887056358
3516 1 41.0345231805 19.306665577 3.01955844684
3550 1 43.3184102266 19.3780108419 2.21699840002
3042 1 45.7073895004 16.3497902354 0.520735451528
2496 1 44.7226987115 17.364002566 2.68123767957
8200 1 47.2111676087 17.6710742185 1.97696553935
8709 1 45.9629408941 19.3073749544 3.43020962545
8201 1 45.5662537277 19.0343118315 0.726761433496
8232 2 48.8903904844 16.5843817194 3.41948280767
8169 1 48.4638128543 16.4274671235 0.159790472747
8233 1 50.046404472 17.783130228 1.72511826999
8742 1 48.7621690133 19.2295833194 3.25215260818
8679 1 48.5109465669 19.1228723664 0.43709075483
8202 1 51.3424557742 16.3945929861 0.215350272006
8264 1 51.5713362715 16.409442283 3.10125775603
8265 1 52.8747853776 17.8213689543 1.57263746087
8296 1 54.3875161439 16.3936725631 2.92496632349
8774 1 51.5690563959 19.2679541044 3.07749601295
8806 1 54.4000990433 19.2528962021 2.9252705675
8712 1 51.3407515148 19.242120562 0.228798878797
8744 1 54.2159529623 19.248298453 0.0751383994356
8234 1 54.203810709 16.391449799 0.0686356216637
8297 1 55.7313466446 17.819987701 1.41923159382
8328 1 57.2483676351 16.3960381004 2.76145822491
8838 1 57.2573566596 19.249035909 2.76248253717
8329 1 58.5992826823 17.8218531079 1.25887510062
8360 1 60.1177746359 16.3991306705 2.59353463867
8361 1 61.4666974151 17.8252273106 1.09018063846
8870 1 60.1212008508 19.2521752081 2.59337565432
8391 1 64.5040633138 17.8299144359 3.75000634596
8392 1 62.9844488422 16.4004691838 2.42049909433
8393 1 64.3296665866 17.8273756615 0.916750075072
8425 1 65.8476425036 16.399942319 2.24625987158
8902 1 62.9845077286 19.2564849421 2.41998154637
8935 1 65.8457049559 19.257628713 2.2453208417
8424 1 67.3652861261 17.8289106542 3.5746378944
8426 1 67.1899624532 17.8274080669 0.742037806965
8458 1 68.7104468435 16.3986365015 2.07207093336
8968 1 68.7054335539 19.2553262743 2.06964258571
8457 1 70.2262262025 17.8261975478 3.39911880807
8489 1 73.0930156333 17.8224994434 3.22431648206
8490 1 71.5729746232 16.3981704663 1.89597291807
9000 1 71.5662167078 19.2482182562 1.89286029526
8394 1 70.0486667242 17.8251084425 0.565048250585
8427 1 72.9101563579 17.8202815537 0.386798344404
8521 1 75.9772385445 17.8161235413 3.04950158795
8522 1 74.4433102658 16.3979986859 1.72162720262
9032 1 74.4349461983 19.2360407113 1.7175374482
8459 1 75.7720991555 17.8125715184 0.202536013385
8553 2 78.7914867114 17.7936288636 2.73355085454
8554 1 77.2890577314 16.3727740904 1.52482765616
8586 1 80.189010114 16.369439241 1.35193718289
9064 1 77.2746544602 19.2431957588 1.5229353329
9096 1 80.1317384029 19.222497635 1.33804871657
8491 1 78.6220154672 17.8015134618 0.00990722521144
8618 1 83.111168233 16.5247699843 1.16025023019
8585 1 81.6606494168 17.7956874061 2.72359960699
9128 1 82.8628483112 19.1979451959 1.15913868633
8555 2 84.9151196516 18.3545517109 0.783850973832
8617 1 84.5957115236 17.9486054105 2.93711702693
9127 1 86.8027110651 18.8947641831 3.62421184757
9160 1 84.6541123871 20.3475194927 2.40739476742
9180 1 88.3323581166 17.4077181718 2.39077398655
9179 1 91.3303828219 17.7272967788 2.54697560733
9097 1 89.8429818241 18.8681148288 0.662371351815
8649 1 89.7521270454 19.0267564455 3.68329444555
10179 1 88.3398483242 20.3676932766 2.34650134879
3609 1 2.57858033117 20.6397598017 2.50340496658
3578 1 1.29317598374 22.0753215133 0.94693125418
4119 1 2.57959914269 23.4978801821 2.49419433725
3577 1 1.00978868473 22.071316187 3.78915854551
3641 1 5.45830539098 20.6970204265 2.68708177226
3610 1 4.12986822688 22.1212239383 1.17800710678
3642 1 7.01259162099 22.1320278499 1.39433141356
4151 1 5.47160187392 23.5344943116 2.68296674279
3673 1 8.37309598889 20.6768035409 2.87779056728
3674 1 9.88869911145 22.1062106377 1.51957320631
4183 1 8.36902498332 23.5235865839 2.84456926959
3675 1 8.58404353518 20.7187353416 0.0937221147336
3705 1 11.2555622711 20.693448403 2.98461980405
3707 1 11.3414134837 20.643435438 0.114058942377
3737 1 14.071493034 20.6667899812 3.11915720353
3739 1 14.2200872084 20.6585147564 0.268863193518
3706 1 12.7186032722 22.0886686444 1.61087837985
4215 1 11.2313600266 23.5287199935 2.97797758092
4217 1 11.3669299537 23.5085831925 0.108851846921
4247 1 14.0725427876 23.5231485524 3.11250675719
4249 1 14.2278245467 23.5175652351 0.268385945811
3771 1 17.0849480101 20.6652982302 0.433457623706
3769 1 16.9232502561 20.6676395177 3.2762985136
3738 1 15.5742853705 22.0911709944 1.77065652133
4281 1 17.0864244068 23.518889105 0.434385382553