ITEM: TIMESTEP
6000
ITEM: NUMBER OF ATOMS
10200
ITEM: BOX BOUNDS pp pp pp
0.0 91.5382635842
0.0 28.55
0.0 45.7691317921
ITEM: ATOMS id type x y z
8 1 1.61783118287 1.82702212711 1.03473085394
549 2 2.95854391463 3.26690529524 2.56122393095
39 1 2.83479195061 0.620082130106 2.56322398543
7 1 1.05997194507 2.13927145036 3.80257352662
40 1 4.29569390231 2.07158941312 1.135326741
72 1 7.05544034981 2.11048344916 1.31493136534
581 1 5.54778524235 3.53385202089 2.65770698353
71 1 5.57118038275 0.645185462905 2.68520249352
104 1 9.88221855504 2.1049652695 1.45734968628
613 1 8.37743855268 3.54342697118 2.81273390599
103 1 8.37341433848 0.678544497945 2.81718237072
136 1 12.7380076832 2.10992551885 1.61794084856
645 1 11.2270504412 3.53896646501 2.96028995705
647 1 11.3985032419 3.53460567165 0.112629875462
677 1 14.0845698959 3.53861179792 3.12274496467
679 1 14.2526077107 3.53821895861 0.277955480938
137 1 11.3938943414 0.679283574078 0.110476585567
167 1 14.0829534129 0.685569932433 3.12237921638
169 1 14.2513433683 0.684648219778 0.277469688396
135 1 11.2245949343 0.683743421369 2.96171359656
168 1 15.5963935242 2.11214107299 1.78459680783
711 1 17.1064361462 3.54253533831 0.444398667486
709 1 16.9417277205 3.53657853333 3.29381225753
199 1 16.9437310122 0.683807132815 3.29113877863
201 1 17.1063204636 0.687807700385 0.442671486429
200 1 18.4481394678 2.1154759934 1.94901465946
232 1 21.2939907673 2.11894708893 2.11651765641
743 1 19.958746092 3.54723789016 0.611828272654
741 1 19.7871094358 3.539372898 3.46111266051
231 1 19.7747373179 0.699814164406 3.43958932645
233 1 19.9596785082 0.690572492668 0.609348400198
264 1 24.1362857831 2.12412460639 2.29070609868
775 1 22.8078468522 3.55108174287 0.782447021922
773 1 22.6223981139 3.54415925868 3.63372929381
265 1 22.8068158585 0.694827344831 0.778927904537
263 1 22.634682892 0.704345882988 3.61105129677
295 1 25.4557856906 0.69504472008 3.80327346393
805 1 25.4589311797 3.55105457304 3.81084995075
297 1 25.6536303671 0.700538631762 0.952014949666
807 1 25.6527962674 3.55450775675 0.955119776359
296 1 26.9766457043 2.13013156629 2.46766746401
839 1 28.4918188724 3.56357376799 1.12857565305
329 1 28.4957678726 0.70812957251 1.12715414281
328 1 29.8187986548 2.14256509713 2.64089101901
360 1 32.6538937906 2.15324855497 2.8131949579
871 1 31.3349290669 3.5749249419 1.2977301666
361 1 31.3319827764 0.717906568942 1.29862909644
392 1 35.4768628751 2.16752393135 2.99390665722
394 1 35.6851140599 2.1519279808 0.119178508863
903 1 34.1715648023 3.58391939435 1.46492468915
393 1 34.1653770851 0.727058841321 1.47040135594
426 1 38.4873242724 2.20348022885 0.263873567541
935 1 36.9852543175 3.61113234569 1.65240420514
967 1 39.7802362748 3.61848426958 1.76510558124
424 1 38.2654270905 2.23190797655 3.18916482965
457 1 39.6320918804 0.826670076187 1.86412110964
425 1 36.9942024714 0.7459246016 1.64393137679
999 1 43.5715989125 1.60280657972 2.26317204449
456 1 41.0840305731 2.20174189731 3.26707227495
1510 2 42.2655782923 3.57287301288 1.73648556921
458 1 41.4866325367 1.93334696768 0.387588013158
1000 2 45.2730368879 3.48613823095 1.83351604724
5650 1 47.5232615212 3.50285938046 1.93266875463
5649 1 46.2209899397 1.98974403059 3.34676582899
5651 1 45.9116367783 1.7909204867 0.543327898486
489 1 45.2572581724 0.0323286340754 1.96438261287
5140 1 47.6261368135 0.593280185916 1.83370529547
5173 1 50.1995433397 0.696442319931 1.77516383488
5682 1 48.9019822799 2.08608246622 3.26790334297
5619 1 48.586204404 2.35526557855 0.208217681681
5683 1 50.1946634336 3.50935756437 1.75449294162
5205 1 53.0037094181 0.703623749535 1.62474863814
5714 1 51.6853425205 2.11215558463 3.1433176964
5746 1 54.4914380058 2.13257315376 2.97064801014
5652 1 51.4604627239 2.07721270721 0.235545184604
5715 1 52.9787586501 3.54102741415 1.60161367646
5684 1 54.2996892415 2.12636520551 0.084285039002
5237 1 55.8079190236 0.701369932011 1.44376222577
5778 1 57.3097567361 2.13253520166 2.79074909042
5747 1 55.8024939092 3.56055293438 1.44032331825
5269 1 58.6409677986 0.704391547529 1.27087923899
5301 1 61.4861148024 0.707022505977 1.09461838819
5810 1 60.1490832488 2.13406966729 2.61116426407
5779 1 58.6388456084 3.56424705297 1.27173811497
5811 1 61.4855076329 3.56491010443 1.09660677699
5331 1 64.5112145668 0.706127181738 3.76116603439
5333 1 64.3357566148 0.708936356421 0.914831618173
5842 1 62.9972954831 2.1352837987 2.43015085603
5841 1 64.5114387834 3.56260337989 3.76322740639
5843 1 64.3361074481 3.56512123152 0.917241591923
5875 1 65.847440453 2.13638104287 2.24795084129
5364 1 67.3593349909 0.707963852479 3.57769732178
5366 1 67.1866873796 0.710679082745 0.733945511013
5908 1 68.6976129922 2.13731065258 2.06680169341
5874 1 67.3603545046 3.56318634965 3.58035303572
5876 1 67.1876068164 3.56568075266 0.736886537875
5397 1 70.2073345434 0.708879435048 3.39600921258
5429 1 73.0595152223 0.708685322087 3.21909859746
5940 1 71.5508788169 2.13791185179 1.88991255119
5334 1 70.0396048525 0.712559307561 0.556013928275
5367 1 72.899970783 0.716454469281 0.385135532339
5907 1 70.2083316828 3.56343304444 3.39920012185
5939 1 73.0596500747 3.56276412049 3.22286448872
5844 1 70.0405143469 3.56623467793 0.55973695345
5877 1 72.9003687681 3.56610239513 0.390250646452
5461 1 75.9398639452 0.715960392553 3.06730399025
5972 1 74.4166209632 2.13865325658 1.72677614924
5399 1 75.7626250247 0.724809634104 0.219984622529
5971 1 75.9382080792 3.55243981734 3.07326367168
5909 1 75.7640710123 3.56440721972 0.226982818886
5493 1 78.8219444218 0.723238604175 2.91264399513
6004 1 77.289697274 2.13987737336 1.57085952859
6036 1 80.1444051656 2.1231651461 1.39260043642
6003 1 78.8190355667 3.53106282605 2.92706608677
5431 1 78.624228638 0.728209559744 0.0568894805085
5941 1 78.6316340449 3.56247728781 0.0677321989026
6068 1 83.0240245904 2.1486161573 1.26295260903
5525 1 81.7234522139 0.690805774543 2.6898642816
6035 2 81.629819176 3.51796697385 2.74910263225
6610 2 85.5239615223 2.42311592974 0.831025861727
5590 1 84.7227525141 0.745909935837 2.39261436263
5527 1 87.1352261892 0.883933173606 0.229314960808
6117 1 87.0539598527 0.0326379619122 3.02845508244
5609 2 91.2000175567 2.49993497181 1.82512675606
6120 1 89.2197040536 2.99581446772 0.245258404862
5608 2 89.1988314912 0.763922317856 3.36764382085
518 2 1.59915131001 5.36253266025 0.776162717682
1059 1 2.73469581608 6.70839826781 2.3529488758
1028 1 1.18216575867 7.78388544687 0.443017709032
550 1 4.19366891222 5.0053475742 1.17297553861
582 1 7.04559722822 4.97894745144 1.30998176471
1060 1 4.27638563322 7.92905151667 1.09283198403
1091 1 5.51958099434 6.43294303662 2.63169842146
1092 1 7.05842979745 7.84004959877 1.29272191468
614 1 9.89012765414 4.96895216241 1.45927364441
1123 1 8.379277159 6.40670848576 2.80486780403
1124 1 9.89394375125 7.83030654144 1.45339184138
646 1 12.7408910157 4.96649138351 1.6179456561
1155 1 11.2312437878 6.39969338885 2.95871490937
1156 1 12.7411318363 7.82844005487 1.61568114123
1157 1 11.4042444612 6.39557308413 0.111654410645
1187 1 14.0836887493 6.39792651272 3.12060783271
1189 1 14.2530673978 6.39618641431 0.277355757267
678 1 15.5958172028 4.96744405849 1.78466673304
1188 1 15.5927056735 7.82849730845 1.78172557484
1221 1 17.1054508281 6.39916364341 0.445085144746
1219 1 16.9357799168 6.39883233606 3.28906205534
710 1 18.4469806561 4.97091355716 1.95259538034
742 1 21.2953670365 4.97625774963 2.12341161484
1220 1 18.4451551705 7.83030832224 1.95111828694
1252 1 21.2968251455 7.83275986115 2.12465402041
1253 1 19.9583675212 6.40240567854 0.614644067234
1251 1 19.7837583017 6.40294669412 3.45956636557
774 1 24.1394428891 4.98019655061 2.29913277514
1284 1 24.1463795064 7.83389092008 2.30440735813
1285 1 22.8091138884 6.40511790179 0.786835044084
1283 1 22.6319854509 6.40857046214 3.63642881961
1315 1 25.4612971229 6.40214974229 3.80524094248
1317 1 25.651287002 6.40765591556 0.960208640648
806 1 26.9741699811 4.98735802959 2.47598657456
1316 1 26.9747574552 7.8332181664 2.47322125782
1349 1 28.4874390746 6.41299108486 1.13187537696
838 1 29.8137326783 4.99464389744 2.6454511348
870 1 32.6559596829 5.00565799225 2.81699636101
1348 1 29.803501337 7.83738991315 2.65032552635
1380 1 32.6536540986 7.84523176191 2.8231350294
1381 1 31.3344343982 6.42295412534 1.29991673254
902 1 35.486318653 5.02216580843 2.98760703017
904 1 35.7016560904 5.01299052571 0.115177064835
1412 1 35.4816581513 7.84157602795 3.01554257443
1413 1 34.1839249562 6.4333723792 1.46807749274
1414 1 35.7285427618 7.85169897476 0.128942082933
1445 1 37.0441552958 6.43365249552 1.63782486722
934 1 38.3551751617 5.09594352652 3.1738163932
1444 2 38.0360277191 7.89110587302 3.45109922929
1477 2 39.7662143852 6.24024352566 1.44241576936
936 1 38.4514808127 4.92959645614 0.180553292414
1446 1 38.500485452 7.8149022781 0.162543487396
966 1 41.1064110796 5.27006704735 3.23873237737
968 1 41.3059822564 4.97452091919 0.337402454051
1986 1 41.3289681475 7.53367411035 0.222550066547
1509 2 43.8519918782 6.09508831257 3.0635650698
6159 1 46.1632849071 4.98388144386 3.46201939913
6160 1 47.4114139949 6.29330773522 1.77703714168
6669 1 46.0328855012 7.48174018021 3.42865335784
6161 2 45.3068815216 6.06528672238 0.0124351471299
6671 1 46.0538609832 8.00566686392 0.626252788507
6192 1 48.871986614 4.96372066714 3.28446317971
6193 1 50.1854553243 6.3956697885 1.76375156476
6129 1 48.7789076394 4.93680431358 0.367604432056
6702 1 48.8797762447 7.74067445918 3.30733567606
6639 1 48.697046862 7.84720611556 0.401550934951
6224 1 51.6700883258 4.96861070772 3.13091857443
6225 1 52.9853691538 6.4236560961 1.61565326981
6256 1 54.4753117739 4.98295334251 2.96457510114
6162 1 51.5143331427 5.00841726523 0.26041183953
6734 1 51.6613227345 7.82697607145 3.14124981028
6766 1 54.4712568444 7.84835285208 2.9706686479
6672 1 51.4570724271 7.84434581732 0.243557284068
6194 1 54.2958415966 4.99060989636 0.089194124585
6704 1 54.2934223868 7.85869430806 0.0942934878676
6257 1 55.7970129083 6.42066145684 1.44448265212
6288 1 57.3047476906 4.99150935733 2.79070525247
6798 1 57.3002716254 7.84912472204 2.79237677927
6289 1 58.6366421082 6.42180409047 1.27340127486
6320 1 60.1476383488 4.99261415083 2.61258062662
6321 1 61.4857684101 6.42106738248 1.0976762494
6830 1 60.1465849127 7.84889671862 2.61281681018
6351 1 64.5123830213 6.41957616732 3.76332133996
6352 1 62.9976612068 4.99215875092 2.4317204703
6353 1 64.3377734821 6.4205764959 0.918292117391
6385 1 65.8488838277 4.9921910377 2.24978902661
6862 1 62.9987139877 7.84809948104 2.43147298578
6895 1 65.8512866732 7.84808335093 2.24954822236
6384 1 67.3625377848 6.41988178538 3.5806428818
6386 1 67.1901319425 6.42073497962 0.738143467646
6418 1 68.6997033619 4.99261941067 2.06908219686
6928 1 68.7033178999 7.84846942248 2.06901134673
6417 1 70.2119377825 6.42023561431 3.39970821282
6449 1 73.0654272738 6.41804366968 3.22397186924
6450 1 71.5532502756 4.99222708703 1.8925060489
6354 1 70.0437188133 6.42070373904 0.561114958459
6387 1 72.9042170524 6.4172684687 0.391445235124
6960 1 71.5583646968 7.84725375535 1.89247476418
6481 1 75.941956871 6.39917702034 3.07326204126
6482 1 74.4196123209 4.98602810136 1.73033249866
6419 1 75.7662703882 6.4078537558 0.228097257032
6992 1 74.4231833385 7.8381670574 1.7287211661
6513 1 78.7978606372 6.38473222952 2.92364957485
6514 1 77.2900995816 4.97040683911 1.5783458201
6546 1 80.1289265936 4.97834169464 1.41914238267
7024 1 77.2780285156 7.83026239025 1.57144110795
7056 1 80.0978914227 7.83629696087 1.42041638844
6451 1 78.6141517537 6.40008143575 0.0663452366378
6545 1 81.6121202425 6.4392855351 2.76582003896
6578 1 83.0034945793 4.98948511853 1.36108877896
7088 1 82.8854022533 7.8745644099 1.2694874392
6608 2 85.0790369749 4.68295305332 3.17249499074
6577 1 84.4657181412 6.66183884531 2.49184587709
6609 1 85.9262453134 4.91489723223 0.942255707213
7138 1 87.0934383382 5.94692263365 3.23082483741
7120 1 85.7795394861 8.00772380615 0.984205016724
7119 2 87.7377343135 7.98921915139 2.13168134501
6100 1 88.4085854363 4.22204184589 2.14158085444
6119 1 90.8116442818 4.70402964704 1.55053478925
7140 2 90.5660491541 7.05167214044 1.73953697676
6579 1 89.7981789859 5.5001412365 3.69442044964
1569 1 2.62902007576 9.21294066852 2.41659765188
1539 1 1.43177703152 10.6214463982 0.905541495567
2079 1 2.69411852256 11.9991709461 2.5013706316
1538 1 0.0358680872102 9.01708078154 2.21346297572
1570 1 4.21499899018 10.6388864491 1.11811930046
1601 1 5.54171528942 9.26720332715 2.66353374655
1602 1 7.06647732535 10.6882528152 1.29563590235
2111 1 5.54946191772 12.071206097 2.65183807754
1633 1 8.38501954238 9.25608984253 2.80615692207
1634 1 9.88507154069 10.6967010522 1.44904506422
2143 1 8.38898921157 12.1073365797 2.81314065231
1665 1 11.2287731158 9.2606681956 2.95537647648
1666 1 12.7335619267 10.693192948 1.61310123312
1667 1 11.4022374292 9.25994801461 0.109321946383
1697 1 14.0800620581 9.2598857919 3.11801419714
1699 1 14.2499729578 9.25920585176 0.275744760744
2175 1 11.2154616759 12.1257115044 2.95170233263
2177 1 11.3858778023 12.130784181 0.108504587301
2207 1 14.0762696952 12.1182163138 3.11684232406
2209 1 14.2453532608 12.1199698588 0.275390165185
1698 1 15.5900418058 10.6886094896 1.78017630492
1731 1 17.1042659276 9.25851501939 0.444447974244
2241 1 17.1039957449 12.1158863175 0.444542303334
1729 1 16.9328578869 9.25913534423 3.28678900629
2239 1 16.9324585441 12.1155055359 3.28685533508
1730 1 18.4455856795 10.6880486114 1.95141673321
1762 1 21.3003669521 10.6896354789 2.12748100057
1763 1 19.9592454675 9.25984297722 0.616510567452
2273 1 19.9609169756 12.1169637917 0.618945056814
1761 1 19.7845703599 9.26061209536 3.45940920483
2271 1 19.7869560292 12.1165271055 3.46068035933
1794 1 24.1507483465 10.6913512359 2.3070604875
1795 1 22.8110361561 9.26127376586 0.791706175467
2305 1 22.8156657844 12.121517456 0.797585042483
1793 1 22.6372861132 9.26053965574 3.6380628765
2303 1 22.641669263 12.1206131014 3.63818714582
1825 1 25.4685465573 9.265860839 3.80806362549
1827 1 25.6515455481 9.25967293615 0.963306918612
2337 1 25.6554380869 12.1240791945 0.966611105488
1826 1 26.9747354467 10.6851539821 2.47790028694
1859 1 28.4843511404 9.25982327243 1.13370430441
2369 1 28.4820225904 12.1220647761 1.1356083052
1858 1 29.7983332748 10.6869319911 2.64789512657
1890 1 32.6380350186 10.6797583131 2.81878482532
1891 1 31.3274291706 9.26196553821 1.30262577182
2401 1 31.318115803 12.1149524444 1.30674805215
1922 1 35.4786187276 10.6827521202 2.98827015411
1923 1 34.1874160015 9.26100164701 1.47484955648
1924 1 35.7406173153 10.6850363484 0.152266770365
2433 1 34.1558106443 12.1024875306 1.47089567198
1955 1 37.0587994423 9.2134932704 1.68085032372
1954 1 38.4400295168 10.6956666837 3.07531648872
2465 1 36.9476881966 12.128000015 1.68203566022
1956 1 38.4550815096 10.7133531831 0.390822361662
1987 1 39.9672240582 8.76629890967 1.9941742325
2019 2 42.5963131016 8.5507780951 1.62424917187
1988 2 40.4528510025 10.8869436289 1.3054309653
2530 2 43.683142193 11.7123405213 0.936361957212
2020 2 45.3212577183 9.32802848684 2.47619386177
6670 1 47.5211237174 9.12539622972 2.02566774293
7179 1 46.3917379252 11.0560802538 3.35896373912
7181 1 45.8699787294 10.6354334789 0.664168245769
6703 1 50.1750414253 9.23775618956 1.79305506488
7212 2 48.9357721178 10.6780641465 3.34673694296
7149 1 48.6440094037 10.6889466219 0.519468789646
7213 1 50.1996299727 12.121432373 1.76844941015
6735 1 52.9577652476 9.2712809037 1.61215027284
7244 1 51.6448920911 10.6893234501 3.1446532753
7276 1 54.4585293259 10.7009896553 2.96413566972
7182 1 51.439212481 10.6900948649 0.255685262432
7245 1 52.9496223513 12.1221613522 1.6041172865
7214 1 54.2767299823 10.7000280671 0.0883298550209
6767 1 55.7928551485 9.27862375935 1.44527992229
7308 1 57.2971004024 10.7040592707 2.7896730907
7277 1 55.7849954978 12.1270016601 1.43810759094
6799 1 58.6352389454 9.27627712823 1.27313032383
6831 1 61.4865964985 9.27532230577 1.09687208099
7340 1 60.1463347248 10.7028128211 2.61072148181
7309 1 58.6342560371 12.1276542471 1.26943607436
7341 1 61.487810972 12.1278113402 1.09417016395
6861 1 64.514108752 9.2759335743 3.76174018175
6863 1 64.3400534827 9.27522570593 0.917364685248
7372 1 63.0002880532 10.7025939874 2.4294815233
7405 1 65.8541850795 10.7031814961 2.24768785378
7371 1 64.5163016655 12.1304744597 3.75945502814
7373 1 64.3424036281 12.1288615614 0.914915792335
6894 1 67.3657813272 9.27640926316 3.57931006079
6896 1 67.1934593915 9.27552480175 0.737185363846
7438 1 68.7074128281 10.7036147924 2.06728914405
7404 1 67.3691895457 12.1314475704 3.57741292525
7406 1 67.1966405147 12.129666289 0.734654415279
6927 1 70.2170337895 9.27664139177 3.39889165846
6959 1 73.0720918567 9.27417715532 3.22408874043
7470 1 71.5629633443 10.7020696982 1.89063018613
6864 1 70.0480076724 9.27498384049 0.559764578648
6897 1 72.9080093508 9.27010138048 0.388081042015
7437 1 70.2216667237 12.1313876572 3.3978508577
7469 1 73.0764638063 12.1291577442 3.22486215165
7374 1 70.0513263898 12.1288761816 0.556487385201
7407 1 72.9077278709 12.1253968697 0.382629302565
6991 1 75.9356717836 9.26291268652 3.06773858602
7502 1 74.4219281029 10.69680765 1.72370164778
6929 1 75.7628367389 9.26397588176 0.220529925617
7501 1 75.9290705935 12.1292106427 3.0637368818
7439 1 75.755871868 12.1258200411 0.213651202078
7023 1 78.7795882746 9.26335463119 2.92291388327
7534 1 77.2678604127 10.6967288776 1.56574133042
7566 1 80.0912623621 10.7054468188 1.42354059669
7533 1 78.7700397582 12.132707162 2.92194538459
7471 1 78.5824294857 12.1281250761 0.0472724870318
6961 1 78.5962033064 9.26702233914 0.0552356902303
7055 1 81.6123055517 9.27801824414 2.79346198951
7598 1 82.8409728201 10.7446208058 1.29255288641
7565 1 81.602982214 12.1458524018 2.80321612908
7597 1 84.3731073548 12.0851017579 2.84859445452
7087 1 84.4339879836 9.36338290832 2.63233206628
7630 1 85.3317578576 10.9242789912 1.02360965976
7568 1 87.1849185739 10.1525231719 1.95431576632
7137 1 89.3641064363 9.30515290826 1.17942827442
7139 2 90.7730552988 11.1095014011 0.874836319088
7648 2 90.1860816936 10.0631643343 3.64464827877
2589 2 1.52414072242 13.3658326896 1.02001049342
2557 1 2.68802866664 14.8616426963 2.49018763813
2047 1 0.993268027879 13.3241825645 3.70921062286
2080 1 4.20192639283 13.4529062652 1.18254150959
2112 1 7.06123540154 13.5183711037 1.32365511206
2621 1 5.50856937824 14.92361443 2.68376892987
2623 1 5.69382848444 14.9512642381 0.0102675726734
2144 1 9.86939881913 13.5542153412 1.44064093615
2653 2 8.38328026129 14.9515328965 2.84333494299
2176 1 12.7243924883 13.5507232515 1.61392941814
2685 1 11.2109192856 14.967280883 2.9577151539
2687 1 11.3694892685 14.9784593391 0.110987257623
2717 1 14.0761579461 14.9694088942 3.11875934968
2719 1 14.2433287271 14.9721394285 0.276014048636
2208 1 15.5891446873 13.5439764329 1.78037049308
2751 1 17.1036141262 14.9705226376 0.444602565707
2749 1 16.9322097626 14.9695292787 3.28767882566
2240 1 18.4458914956 13.5432751152 1.95219622092
2272 1 21.3033256019 13.5478284563 2.1298177105
2783 1 19.9601968673 14.9707392403 0.617801919332
2781 1 19.78635001 14.9705940122 3.46109424619
2304 1 24.1620237808 13.5630899925 2.31266225538
2815 1 22.8173252892 14.9753982407 0.79483956303
2813 1 22.6500840634 14.9826525427 3.63813930299
2847 1 25.6429625741 14.9622832773 0.946396189086
2336 1 26.9786241331 13.5689389401 2.47542537497
2879 1 28.5003681466 14.9597151624 1.11738746498
2368 1 29.7873331403 13.5592882874 2.65515795095
2400 1 32.6212569114 13.5350482976 2.82785848512
2911 1 31.3166458264 14.9670989668 1.30643881296
2432 1 35.4008927381 13.4943363588 3.03047019618
2434 1 35.6993416457 13.5192977856 0.122597592847
2943 1 34.1488234996 14.9498895571 1.4855261478
2975 1 36.8385581446 14.9143915233 1.71078888757
3005 2 38.1163149085 13.5212895771 3.19208420345
2498 1 38.5867537094 13.6377776511 0.475132673421
2976 1 38.3792137235 16.2839990813 0.476602607871
2974 1 37.9628002254 16.3034141111 3.31926654716
3008 1 42.4893252817 13.9744675918 0.689050566356
3039 1 43.6914559254 12.7842438683 2.94436110125
2497 2 41.4131592934 13.2112494039 3.02475276588
3009 2 40.4766994268 15.5113528368 1.0758880244
3549 2 43.2424903373 16.2537439351 3.51296532152
7180 2 47.1275208528 12.5416605157 1.49631232072
3040 1 44.3204639212 15.2081231753 1.8328360794
7689 1 46.0488935962 13.5097086245 3.33317715693
7690 1 47.2532260596 14.997048795 1.86420056396
7691 1 45.3023359599 13.4319887999 0.581447232846
7722 1 48.7832423524 13.4831575312 3.23366687189
7723 1 50.1304546459 14.9817452056 1.77653141844
7659 1 48.7344883763 13.6070820563 0.371568410481
7754 1 51.6286183283 13.550092684 3.12214211742
7755 1 52.9458567425 14.9764628322 1.5944549904
7786 1 54.45301471 13.5524720722 2.95480018395
7692 1 51.4365595042 13.5519384961 0.234161538772
7724 1 54.2703954395 13.5487184647 0.0803782176819
7787 1 55.7840746886 14.9756678143 1.43202572751
7818 1 57.2946335498 13.5532407926 2.78370738348
7819 1 58.6347654424 14.9767326592 1.26518518288
7850 1 60.146946922 13.5539853596 2.60708758581
7851 1 61.4892836523 14.9791023705 1.09098004173
7881 1 64.5177972421 14.9834491226 3.75722249371
7882 1 63.0020169623 13.5553665377 2.42666326437
7883 1 64.3439605204 14.9819253766 0.912105261202
7915 1 65.8566305188 13.5570980066 2.24514670587
7914 1 67.3711048776 14.9854989052 3.57528038645
7916 1 67.198313631 14.9838246721 0.731836337162
7948 1 68.710444047 13.5579244033 2.06486621516
7947 1 70.2232893349 14.9867267348 3.39581110353
7979 1 73.0741316307 14.9888640189 3.22159542261
7980 1 71.5646936173 13.556983889 1.88831869368
7884 1 70.0520150853 14.9841722088 0.553162038802
7917 1 72.9029545815 14.9845448309 0.378169666095
8011 1 75.9234467736 14.996176081 3.05607174239
8012 1 74.4168861649 13.5576931095 1.71900390192
7949 1 75.7473565645 14.9882157338 0.207509921622
8043 1 78.768224907 15.0160615932 2.90234971996
8044 1 77.2612412889 13.5634164198 1.55920054245
8076 1 80.070690382 13.5659829779 1.41463922453
7981 1 78.5741851398 14.9996406297 0.0397306459109
8075 1 81.5661005446 15.0226232287 2.72539438519
8108 1 82.8438366475 13.5944587738 1.28912286999
8107 1 84.3442675028 14.9581655749 2.64197736872
8140 1 85.3833369381 13.4797825233 1.12080314748
8648 2 86.8864220647 14.7449586431 2.36360512435
8139 1 87.4854358907 12.4353953714 2.36232179199
2559 2 90.5110408683 15.3432570395 1.46249055105
8158 2 89.8774124295 13.142001251 3.43273918899
8160 2 88.6940395559 13.3333243576 0.170941510458
3099 1 2.60255275702 17.8336701365 2.59657086754
8669 1 1.54584998289 19.3485710013 1.00609178313
3067 1 1.06799936422 19.4562456404 3.80056774944
2591 1 1.23836445832 16.4805358352 1.18791991715
2590 1 4.12731695265 16.382146639 1.2974201845
2622 1 7.05535423719 16.3740985038 1.37782370337
3100 1 4.18822977336 19.2686527913 1.24723404893
3131 1 5.50998472276 17.8048379519 2.71112601434
3132 1 7.05311290021 19.2489603694 1.35484982936
3133 1 5.70850803708 17.8102293333 0.0297418577005
2654 1 9.86228798392 16.3903957114 1.45237122836
3163 1 8.37397852135 17.8137796042 2.83573872273
3164 1 9.8590871043 19.2259008343 1.4531272525
2686 1 12.72160571 16.3915624294 1.61732040459
3195 1 11.2076136523 17.8087076843 2.95824293744
3196 1 12.7227901922 19.2409635519 1.61526985643
3197 1 11.3701010802 17.8069281501 0.111017593886
3227 1 14.0733160105 17.8202098562 3.11917394172
3229 1 14.2411119212 17.8200913256 0.277534349909
2718 1 15.5881890888 16.396437365 1.78147354202
3228 1 15.5875548224 19.2490394843 1.78241899734
3261 1 17.1028795113 17.8238933431 0.44518286224
3259 1 16.9314818173 17.8233608676 3.28776127699
2750 1 18.4450600483 16.3968250418 1.95187488875
2782 1 21.3008645866 16.3975495579 2.12692016087
3260 1 18.4452663568 19.2505095299 1.95224750413
3292 1 21.3027947436 19.2457350833 2.12805322362
3293 1 19.9600624096 17.8240993311 0.617142638691
3291 1 19.7852573645 17.8227315309 3.45988052939
2814 1 24.1684019307 16.3989251466 2.30534814591
3324 1 24.1639869245 19.2305429585 2.31274981003
3325 1 22.8180493515 17.8203637827 0.793913323438
3323 1 22.6500899609 17.8134516894 3.63744909669
3357 1 25.6453388815 17.832631977 0.94691907299
2846 2 26.9889294401 16.3962936427 2.33841211784
3356 1 26.9825560286 19.2240332502 2.47846753221
3389 1 28.5018201323 17.8299387108 1.11863740238
2878 1 29.7861341766 16.3932914281 2.65032412352
2910 1 32.6252724557 16.3859890395 2.83264558361
3388 1 29.7906380862 19.2251485615 2.65828391044
3420 1 32.6284033761 19.2356834148 2.83200499867
3421 1 31.3189015334 17.8119487536 1.30818107232
2942 1 35.4111355655 16.3862816512 3.03881263318
2944 1 35.692049224 16.3666391173 0.14430100683
3452 1 35.4288054206 19.2352930406 3.02773577804
3453 1 34.1527467034 17.807752713 1.48378199058
3454 1 35.6884966642 19.2246439012 0.140110644842
3485 1 36.9618694707 17.8087955544 1.68916132562
3517 1 39.6518370211 17.5881181643 2.18298472393
3484 1 38.1141283553 19.1921708873 3.28311430299
3486 1 38.5553589198 19.1843128321 0.350088571124
3007 1 42.1433070647 17.2208870176 1.645748165
4059 1 42.945549442 19.8982350859 2.40270307019
3516 1 40.9201371543 19.3272500794 3.33390001055
2527 2 40.9711851594 19.0678836969 0.936143960973
8199 1 45.9151699696 16.328230951 3.4216078896
3042 1 45.871012479 16.3771434129 0.543077821483
2496 1 44.4094702626 17.8017178919 2.03080104613
8200 1 47.1883606858 17.9553147105 2.02956612652
8709 2 45.3036303638 19.9499494998 2.47681563667
8201 1 45.6612055514 18.7950013143 0.268784398375
8169 1 48.6134043526 16.3899432401 0.434325163885
8232 1 48.7653941884 16.4098732032 3.22906025575
8233 1 50.1013670264 17.8384907174 1.73781611451
8742 1 48.8679220349 19.2803817396 3.25454205806
8679 1 48.5681495701 19.2667933702 0.395077764228
8264 1 51.6237563804 16.4128104993 3.10668513186
8265 1 52.9490285339 17.8289328585 1.58920653854
8296 1 54.454090949 16.4033264687 2.94813627811
8774 1 51.6238879537 19.2600043015 3.09927123658
8806 1 54.4608234364 19.2498998107 2.94749484735
8202 1 51.4324150108 16.4038480035 0.237752622945
8712 1 51.4349255256 19.2491096796 0.234898044159
8744 1 54.2807518562 19.2499344333 0.0746132039656
8234 1 54.2737466669 16.3996670358 0.0768855000192
8297 1 55.7890954615 17.8252967054 1.42880074151
8328 1 57.2969364162 16.4018057812 2.77926187989
8838 1 57.3036743838 19.2494783439 2.77827765555
8329 1 58.6385487212 17.8265942961 1.26252657629
8360 1 60.1488499253 16.403763361 2.60401936541
8361 1 61.4904918733 17.8312657832 1.08885418862
8870 1 60.1511437859 19.2555667335 2.60280459679
8391 1 64.5178198716 17.8362258614 3.75584355947
8392 1 63.0030864754 16.4074985538 2.42426293261
8393 1 64.3439370739 17.8355349134 0.910071517897
8425 1 65.8573264887 16.4106492109 2.24283942336
8902 1 63.0031048566 19.2606952993 2.42323861098
8935 1 65.8558332082 19.2648957931 2.24156106867
8424 1 67.3702200795 17.8396544783 3.57353605538
8426 1 67.1973857165 17.8390471541 0.729609432009
8458 1 68.7106914666 16.4130695964 2.06229990722
8968 1 68.7078644709 19.2692591763 2.06035230642
8457 1 70.2212858677 17.8438075695 3.39332890947
8489 1 73.0707621037 17.8499856534 3.21716621036
8490 1 71.5623188587 16.4156750118 1.88496949984
9000 1 71.5593723444 19.2755592725 1.88212017564
8394 1 70.0497131861 17.84271696 0.550564971985
8427 1 72.898761878 17.847193989 0.37434623518
8521 1 75.917902756 17.8594203721 3.04591431021
8522 1 74.4103842735 16.4199971916 1.71266394766
9032 1 74.4084253803 19.2837224207 1.70767601496
8459 1 75.7398376339 17.8525848787 0.199634380137
8553 1 78.7660904002 17.8776432771 2.87395793579
8554 1 77.2526495661 16.430717381 1.5469791215
8586 1 80.0544838942 16.4454916436 1.37078705363
9064 1 77.2526394708 19.2910829071 1.53279386304
9096 1 80.074974873 19.3010989136 1.31094711437
8491 1 78.5646501077 17.8605847618 0.0206065391402
8618 1 82.9539189021 16.4846106624 1.29093813774
8585 2 81.5047577974 17.8990759934 2.62857890333
9128 1 83.0343668006 19.364495725 1.07676131101
9126 1 83.2670952439 19.2513508068 3.68236528466
8650 1 85.593748321 16.3741754794 1.0848637056
8617 2 84.8394953326 17.2230841604 3.19075259861
9180 2 85.677334179 19.7981221872 0.906371948869
9127 1 85.8946748023 19.3617621782 3.46348236396
8670 2 87.514327451 17.1066559308 0.0115180458221
8649 2 88.0579460942 18.9582176607 2.88692932984
8647 1 88.2284592608 16.5647466338 2.01218448064
9179 2 91.3680080525 18.3208959878 2.10947375451
3068 1 89.9490115552 17.0170364616 0.177549399833
3609 1 2.69778082969 20.7573942629 2.55538806696
3578 1 1.50908971674 22.097880678 0.960908103508
4119 1 2.6796670336 23.5353489171 2.50826450975
3577 1 0.969371489385 22.1245673815 3.80575737037
3641 1 5.52587262094 20.6859575381 2.70558763265
3610 1 4.25083534635 22.1093693897 1.17756228996
3642 1 7.05072003262 22.0902584855 1.32687142963
4151 1 5.52910506073 23.5339801028 2.68938392647
3673 1 8.37894039489 20.6755536323 2.83053232062
3674 1 9.87188277033 22.0963749586 1.45268850253
4183 1 8.37428118635 23.5294544357 2.81879251581
3705 1 11.2141745198 20.6681099943 2.95641630359
3707 1 11.3786718588 20.6635386258 0.109943174233
3737 1 14.0745279074 20.6740433005 3.11939170809
3739 1 14.2424166108 20.6728709921 0.278263998431
3706 1 12.7286684451 22.0980052644 1.61554023257
4215 1 11.2214234932 23.5261351981 2.95922417012
4217 1 11.3892358043 23.5281381597 0.111652512805
4247 1 14.0790420542 23.5296530197 3.12184019826
4249 1 14.2467386968 23.5278863535 0.278531612368
3771 1 17.1033522306 20.6771774118 0.446480408986
3769 1 16.9334007304 20.6788582833 3.28896675422
3738 1 15.5906210551 22.1040760237 1.78455018049
4281 1 17.1048124622 23.5299016156 0.445515908669
4279 1 16.9394995952 23.5373315394 3.29320962113
3803 1 19.9614616977 20.676392122 0.618035641466
3801 1 19.7866022543 20.677013973 3.45949928331
3770 1 18.4474429612 22.106045952 1.95340914249
3802 1 21.3007277885 22.1032357381 2.12563109474
4313 1 19.9613086878 23.5302913984 0.61405516391
4311 1 19.7891365021 23.5393179413 3.46053675669