ITEM: TIMESTEP
2000
ITEM: NUMBER OF ATOMS
10200
ITEM: BOX BOUNDS pp pp pp
0.0 91.5382635842
0.0 28.55
0.0 45.7691317921
ITEM: ATOMS id type x y z
8 1 1.59105737838 2.13308089967 1.09839857553
549 1 2.69764473759 3.56916410497 2.64874086328
39 1 2.87378522083 0.671002674475 2.52262949759
7 1 1.11845586465 1.81295866612 3.63343577282
40 1 4.29011661226 2.14582235562 1.18568272834
72 1 7.10420682578 2.12822869478 1.30753867013
581 1 5.6029509928 3.54633874425 2.67078306097
71 1 5.60942144962 0.691802490272 2.6713629984
104 1 9.92205392017 2.12182532274 1.44962763048
613 1 8.42689112887 3.5531308152 2.81267809084
103 1 8.42256351885 0.696881961642 2.81246529894
136 1 12.7636643777 2.12530176731 1.6065026324
645 1 11.2607652613 3.55301342118 2.95552709975
647 1 11.4261208791 3.5496897656 0.098424556262
677 1 14.1054397588 3.55476001375 3.11171907132
679 1 14.2700409272 3.55318701456 0.262810646751
137 1 11.4234779363 0.696656421462 0.0977468016555
167 1 14.1043857243 0.699136881408 3.1109906585
169 1 14.2696850707 0.699180180888 0.262545015416
135 1 11.2594368012 0.697816219695 2.95502877274
168 1 15.6115819484 2.12682151443 1.77083298481
711 1 17.1182514201 3.55548349653 0.431758817121
709 1 16.9529163438 3.55595342118 3.27745091837
199 1 16.9546017136 0.698535062442 3.27797514671
201 1 17.1188950207 0.700279043324 0.431941254892
200 1 18.4606775838 2.12732246534 1.9423053577
232 1 21.299449406 2.12912814401 2.11694490293
743 1 19.965726727 3.55995537754 0.603996584858
741 1 19.7979055605 3.55936034199 3.44857284076
231 1 19.7911087303 0.706426257064 3.44197170388
233 1 19.9650811141 0.702405732068 0.604493259534
264 1 24.135454378 2.13666150334 2.28664329688
775 1 22.8092781193 3.56672382986 0.77916595811
773 1 22.6360654552 3.56660260793 3.62064487158
265 1 22.801432744 0.705829398786 0.776348112366
263 1 22.6314989082 0.709660442817 3.61344252739
295 1 25.4593633284 0.705565889749 3.79103546458
805 1 25.4741773263 3.57858988809 3.79247627527
297 1 25.6399919762 0.708310421377 0.944477987124
807 1 25.6459898634 3.57007322639 0.94671466321
296 1 26.9697916123 2.13910872623 2.45279932004
839 1 28.4796215872 3.57267300632 1.11690467233
329 1 28.4813845986 0.711618737107 1.11508621483
328 1 29.8037779747 2.14260841326 2.62582643579
360 1 32.6440415829 2.13464863152 2.80017490825
871 1 31.3204386884 3.56944737499 1.29129517742
361 1 31.3220455283 0.712589439467 1.2884764656
392 1 35.4897084389 2.12782800548 2.98410391386
394 1 35.6993325048 2.12827910806 0.119823534618
903 1 34.1665467614 3.55241842645 1.4603676522
393 1 34.1692856619 0.708519980423 1.4622292238
426 1 38.5488987983 2.10514190558 0.296009334756
935 1 37.0197364693 3.54848550081 1.63972072284
967 1 39.7098168543 3.55144549758 1.83908250766
424 1 38.3251354319 2.10049213536 3.16895775617
457 1 39.8410597623 0.576549071241 1.77662099509
425 1 37.0123119512 0.693515390406 1.63690727357
999 2 43.3063832004 1.43882691798 3.33707068324
456 1 40.9619823103 2.03606383345 3.36773345076
1510 2 41.9537205721 3.65039240451 1.89290132893
458 1 41.2138396073 2.0777470882 0.453220838821
1000 2 45.0141515051 3.227833596 1.12284397599
5650 1 47.3319077424 3.47556541349 1.9249747066
5649 2 46.566095055 1.72320036071 3.40590609859
489 1 44.7338361582 0.867935249508 1.79401631381
5140 1 47.619665399 0.588968290703 1.80220756031
5173 1 50.2059037832 0.717279787997 1.76664820535
5682 1 48.9321098278 2.10585871086 3.28108099063
5619 1 48.6292173447 2.18027420139 0.308210947594
5683 1 50.1592440733 3.51194457315 1.7594354796
5205 1 52.9763970465 0.718242410725 1.59448244276
5714 1 51.6728362821 2.12644635905 3.13288268676
5746 1 54.4727355744 2.14089750743 2.95418132281
5652 1 51.4323977628 2.11834405485 0.197755372726
5715 1 52.9495161199 3.55353014378 1.58479149282
5684 1 54.2882734294 2.14015143028 0.0754360217289
5237 1 55.7993381652 0.710014698341 1.43394071455
5778 1 57.3044860752 2.13695325 2.7831528049
5747 1 55.7931407239 3.5642878471 1.43203793692
5269 1 58.6429549038 0.707070530092 1.26944596234
5301 1 61.4951553587 0.70574286566 1.09925484895
5810 1 60.1524536988 2.13453424753 2.61009124673
5779 1 58.6410964925 3.5626566418 1.26959958515
5811 1 61.4944670368 3.56122744422 1.10010617455
5331 1 64.5177134127 0.704659980432 3.76668590804
5333 1 64.3481444865 0.705366911068 0.923527884038
5842 1 63.0052475628 2.1331291529 2.43445855921
5841 1 64.5170419027 3.56006460384 3.76768137608
5843 1 64.3478081308 3.56070303467 0.924958485132
5875 1 65.856923069 2.13272717787 2.25582794987
5364 1 67.3664965221 0.704534513291 3.58617182253
5366 1 67.1992815503 0.706321503491 0.74409765516
5908 1 68.7063172028 2.13328757003 2.07577886649
5874 1 67.3661561052 3.559362286 3.58803529385
5876 1 67.1988871645 3.56119567855 0.746219532965
5397 1 70.2128241102 0.704890339047 3.40596680886
5429 1 73.0585523035 0.704449847301 3.22807525678
5940 1 71.5556490198 2.13478814367 1.89767031595
5334 1 70.0499471514 0.709009476444 0.564535786348
5367 1 72.9047251219 0.714752761864 0.39085158738
5907 1 70.2124260891 3.55923927461 3.40836532604
5939 1 73.0584827238 3.55964635149 3.2307932463
5844 1 70.0493561598 3.5626672151 0.567565679944
5877 1 72.9046494676 3.5650138442 0.395399719166
5461 1 75.9295983088 0.710294531471 3.07482832499
5972 1 74.4147155953 2.13725771853 1.7329697476
5399 1 75.757582638 0.724927486144 0.223143330977
5971 1 75.9301240852 3.5531672391 3.07852788543
5909 1 75.7607579558 3.56775810167 0.230895584731
5493 1 78.7928115735 0.711309326287 2.91849551709
6004 1 77.277636621 2.13980888693 1.57792137461
6036 1 80.1096156755 2.13659326619 1.40771286885
6003 1 78.8017091607 3.53708205015 2.92334788952
5431 1 78.5957420705 0.736966780939 0.0569544199117
5941 1 78.6156687276 3.56985728392 0.0728414266657
6068 1 82.956054898 2.07417542398 1.35821750506
5525 2 81.5009234474 0.501798610761 2.68195849241
6035 2 81.5513624784 3.67798485661 2.72911613444
6610 2 85.489400755 2.22638367492 0.846331628882
5590 1 85.0257135415 0.863955126639 2.64820417274
6117 1 87.7731894452 1.60268236088 1.7422699222
5609 1 90.7991045887 1.56612752513 1.6241445192
6119 1 91.3525779156 3.81976602964 2.27906687775
6120 1 89.5003874755 3.3367362669 0.418030355044
5608 2 89.3161675617 0.593197870351 3.20798561325
518 1 1.57500240801 4.97468282628 0.983974694462
1059 1 2.76437146792 6.39041747474 2.56379382113
1028 1 1.46604868523 7.77684272094 0.902761644865
7140 2 0.256840455161 6.28434246067 2.47973014214
550 1 4.25953103213 4.98015452694 1.19488507496
582 1 7.10699022832 4.97287271261 1.29967739726
1060 1 4.25677994818 7.8133383351 1.18349123919
1091 1 5.63273327375 6.40210890756 2.6429343099
1092 1 7.10534048459 7.83720824236 1.297959377
614 1 9.92662670599 4.97840020346 1.45123924672
1123 1 8.42666698643 6.40940980701 2.80854919991
1124 1 9.92705138296 7.83627025574 1.45188259616
646 1 12.7646607269 4.98060836521 1.60700940683
1155 1 11.2615014628 6.41061896272 2.9557494376
1156 1 12.7644170006 7.83821015076 1.60673163391
1157 1 11.4288459762 6.40681830008 0.10006706984
1187 1 14.1049453348 6.41179073722 3.11118859066
1189 1 14.2695056601 6.40910830022 0.262194761967
678 1 15.6106507688 4.98302376855 1.76997232469
1188 1 15.6089924885 7.84003795606 1.76829123145
1221 1 17.1162877163 6.41185580886 0.429464145623
1219 1 16.9506846998 6.41414362268 3.27572354208
710 1 18.4578873766 4.98650295278 1.93914730816
742 1 21.3054828745 4.99448461528 2.11343056463
1220 1 18.4570248205 7.84204965116 1.93679785217
1252 1 21.3073759454 7.84383886037 2.11056298083
1253 1 19.9649766372 6.41497910072 0.600829636094
1251 1 19.7971927462 6.41879535174 3.44665603852
774 1 24.1564083132 5.00868977424 2.29259659717
1284 1 24.1692805053 7.84353332716 2.28553442625
1285 1 22.8159462927 6.42005812799 0.775746730691
1283 1 22.6546629395 6.43070659095 3.62160722455
1315 1 25.4977512149 6.44208342374 3.79465841792
1317 1 25.6382131917 6.40592629172 0.926055568921
806 1 26.9727903403 5.01176009247 2.45304365532
1316 2 26.9853844795 7.84145119959 2.31425452588
1349 1 28.4960148061 6.4054565365 1.0983181509
838 1 29.7905979466 5.00886784954 2.6334339205
870 1 32.6401163832 4.98829389789 2.80541218235
1348 1 29.7827147863 7.84165901894 2.62552278335
1380 1 32.6428041138 7.84076584891 2.80504364972
1381 1 31.320784213 6.41925308649 1.29109388361
902 1 35.463266469 4.95470929211 2.9930570954
904 1 35.6942261102 4.96477769312 0.108545552455
1412 1 35.4577615624 7.82296439505 2.99801270627
1413 1 34.1684244236 6.40188125187 1.46468665777
1414 1 35.7075527578 7.82329544286 0.132517175047
1445 1 36.9632940419 6.33579937985 1.63516095127
934 1 38.2710924263 4.96743444631 3.22265386847
1444 1 38.0032066808 7.75279468374 3.24421639943
1477 2 39.7196056067 6.33069929953 1.97884298868
936 1 38.5637012399 4.98250958721 0.272330744095
1446 1 38.5249005244 7.71886968133 0.330843867262
966 1 41.0704494047 4.93854019533 3.45818360684
968 1 41.3069797491 5.00479430807 0.322148646721
1986 1 41.4685515021 7.38180558586 0.392747029694
1509 2 43.4384766091 5.69278602653 3.4325157343
6159 2 46.483555075 5.23078278345 3.4202997493
6160 1 47.2186638154 6.29997590657 1.59132884732
6669 1 46.4910823097 7.77818979472 3.42639977771
6671 1 45.7221331782 8.02533211078 0.724706554873
6192 1 48.8754388576 4.95475316009 3.25793263215
6193 1 50.1175592666 6.41314784022 1.75650895824
6129 1 48.7642448612 4.93411966084 0.414607664749
6702 1 48.923253103 7.87666345918 3.25543052159
6639 1 48.6193135055 7.85850666197 0.402796314377
6224 1 51.6373990606 4.98200069385 3.11408896624
6225 1 52.9430982834 6.4047751128 1.58572244116
6256 1 54.4566382182 4.98702814822 2.94768745625
6162 1 51.4276289125 4.97241316197 0.220873045141
6734 1 51.6372149529 7.84139756432 3.10618423558
6766 1 54.4516477597 7.83882168279 2.94389601358
6672 1 51.428695238 7.81757145949 0.219441708049
6194 1 54.2740956721 4.98367561027 0.0744985257276
6704 1 54.2695028777 7.82781845706 0.0704992753021
6257 1 55.7853759678 6.41233915427 1.42993974315
6288 1 57.2999550258 4.99100035646 2.78127819252
6798 1 57.295083552 7.84207497378 2.77832799989
6289 1 58.6384619717 6.4159267261 1.2684443877
6320 1 60.1510206461 4.98992184432 2.60969263076
6321 1 61.4939484848 6.41604926021 1.09978283695
6830 1 60.1491425713 7.84376747656 2.60791931267
6351 1 64.5168371024 6.41614947344 3.76728761579
6352 1 63.0048788916 4.98866215196 2.43486106173
6353 1 64.3483488929 6.41591328609 0.925452382449
6385 1 65.8571289158 4.98811757871 2.25709065533
6862 1 63.0048159786 7.8437595311 2.43392269412
6895 1 65.8583647332 7.84370083269 2.25700893154
6384 1 67.3669877574 6.41560733446 3.58847254681
6386 1 67.1999736793 6.41611746458 0.747516514805
6418 1 68.7068343495 4.98827998001 2.07791741231
6928 1 68.7090979792 7.84366948334 2.07872262755
6417 1 70.2144711971 6.41544974627 3.40961076558
6449 1 73.0626058211 6.41497620818 3.2332634746
6450 1 71.5565099661 4.98885178738 1.90044836732
6354 1 70.0506496113 6.41637685721 0.569493545106
6387 1 72.9060606427 6.4150239105 0.397212057632
6960 1 71.5597500082 7.84270878862 1.90202974232
6481 1 75.9330315965 6.40048067412 3.0806943636
6482 1 74.4167889614 4.98644580676 1.7361815856
6419 1 75.7612664139 6.41268880196 0.230206611964
6992 1 74.4186464281 7.83615221952 1.73634736508
6513 1 78.7758395249 6.40145251237 2.9250782318
6514 1 77.2779065615 4.98057559266 1.57948766636
6546 1 80.0953772409 5.01215053734 1.39900222018
7024 1 77.2673797608 7.83583214928 1.57231925986
7056 1 80.1022991089 7.85077169947 1.41342549837
6451 1 78.6044483416 6.4239234838 0.0609655606122
6545 1 81.5975944963 6.42659338897 2.77348610555
6578 1 83.0116169014 4.99810717187 1.34736619008
7088 1 82.8938047652 7.88048740941 1.2972387403
6608 2 85.0655112934 4.60234148169 3.13004384777
6100 2 87.7670090338 4.25808741409 1.44284753687
6577 1 84.4245824119 6.62268515894 2.60241275344
6609 1 85.7022636854 4.92070608417 0.842217308343
7138 1 86.9418898237 6.34372148716 2.88895026297
7120 1 85.7938884285 7.78123146985 1.15696621797
6579 1 89.390129892 5.68615970416 2.21921738191
7137 1 88.6911238459 8.01277129868 1.48760095127
1569 1 2.6768848833 9.15871249084 2.59048859385
1539 1 1.6113446991 10.5419970344 0.962362138548
2079 1 2.84520528158 12.0677249388 2.45242231257
1537 1 0.980385734399 10.8687225735 3.59083542722
1570 1 4.28011041446 10.6245633286 1.16902198702
1601 1 5.59625746735 9.26046382211 2.65964777761
1602 1 7.09929080194 10.6845104649 1.29582053599
2111 1 5.60111141126 12.1242498147 2.63292151897
1633 1 8.42112247331 9.26610072406 2.80703839579
1634 1 9.92191080259 10.6949407977 1.45059817006
2143 1 8.41792595836 12.1232127653 2.79531603976
1665 1 11.2590230803 9.26888196981 2.95342097686
1666 1 12.7595614437 10.6975320583 1.60488659919
1667 1 11.4274562591 9.2642723812 0.10005047851
1697 1 14.1029926463 9.26967424549 3.10912635869
1699 1 14.2674110425 9.26676257018 0.261320170494
2175 1 11.2472360133 12.1327827457 2.94579305331
2177 1 11.417810256 12.1251963264 0.0989411824939
2207 1 14.1005965179 12.12564569 3.10560839383
2209 1 14.2647792022 12.1228069931 0.260116040508
1698 1 15.6079385714 10.6956103989 1.76655464241
1731 1 17.1156742742 9.26728259583 0.428026243096
2241 1 17.1161388097 12.1206088286 0.427010625701
1729 1 16.9502690915 9.26937672469 3.27417405212
2239 1 16.9508553125 12.1222505554 3.27213006662
1730 1 18.458733378 10.6946044197 1.93611009545
1762 1 21.3132175572 10.6916998806 2.11270690112
1763 1 19.9669035234 9.26793709846 0.600398206726
2273 1 19.9694454922 12.1196157336 0.601485799793
1761 1 19.799893337 9.26925485864 3.44601121723
2271 1 19.8025577514 12.1203957209 3.44442480158
1794 1 24.1694944148 10.6801567865 2.29426664877
1795 1 22.8201004504 9.26496169412 0.776604439857
2305 1 22.8230355076 12.1191574917 0.78162707679
1793 1 22.6606171427 9.26042332925 3.62187619021
2303 1 22.65713711 12.1198266868 3.6194783083
2335 1 25.4967111628 12.12296707 3.79190428271
1825 1 25.5046098775 9.24504923779 3.79581322062
1827 1 25.6408224629 9.27649585462 0.925172962969
2337 1 25.6553751244 12.1193050118 0.944392643299
1826 1 26.9754049185 10.6753339523 2.44970675626
1859 1 28.4952107412 9.27627642636 1.09645056172
2369 1 28.4755447026 12.1195659444 1.11278860185
1858 1 29.7802151142 10.679258176 2.62933735868
1890 1 32.6317063571 10.690391413 2.79592630328
1891 1 31.3170454621 9.26211939639 1.28978692669
2401 1 31.3114306511 12.1205732381 1.29102434175
1922 1 35.4798709033 10.7033080538 2.96775864917
1923 1 34.1737932145 9.26496890719 1.46733314458
1924 1 35.7270230109 10.7055167108 0.16484326064
2433 1 34.1534653229 12.1102625459 1.44908496948
1955 1 36.9995747538 9.23358630371 1.66476484814
1954 1 38.3714537199 10.71011658 3.06539504488
2465 1 37.001244057 12.164903025 1.6774592116
1956 1 38.5018731829 10.6657175329 0.429463908229
1987 1 39.7387150908 8.74566053094 2.16499413575
2019 2 43.182642377 8.18881605233 1.51030259487
1988 2 40.6314310594 10.6080877531 1.50418348595
2529 2 43.5793893803 10.5974844649 3.80891721189
2530 2 43.6693860863 11.8775764678 0.87326229113
2020 1 44.7986462751 9.02823521504 2.68220434479
6670 1 47.3901965339 9.3297450373 1.90465568153
7179 1 46.1204168718 10.8020214302 3.45180666801
7181 1 45.8406080999 10.7635813297 0.607010788865
7180 2 47.4771734013 12.1104379308 2.00998620476
6703 1 50.145205356 9.29781569713 1.70922604218
7212 1 48.9178241194 10.6964751989 3.28301872787
7149 1 48.5574689075 10.7519696163 0.317922652549
7213 1 50.1502570146 12.1169206764 1.7254309335
6735 1 52.9450956845 9.26141214126 1.57583632154
7244 1 51.650549093 10.700776688 3.10046020214
7276 1 54.455179307 10.691699539 2.94047776249
7182 1 51.4370278075 10.6934713742 0.202339540144
7245 1 52.957775149 12.1163371031 1.57465038203
7214 1 54.2733639242 10.6832925415 0.0646962306882
6767 1 55.7823998172 9.26245272791 1.42519876645
7308 1 57.2936936507 10.6937377241 2.77482907548
7277 1 55.7849074554 12.1170301812 1.42216434137
6799 1 58.6354955634 9.26736561012 1.26561078366
6831 1 61.4933630749 9.26971203317 1.09817061264
7340 1 60.148061794 10.6961238722 2.60525083403
7309 1 58.6353851778 12.1196133693 1.26287744045
7341 1 61.4939433214 12.1223138505 1.09615032462
6861 1 64.5175803158 9.27161065741 3.76591260476
6863 1 64.3495323723 9.27060283198 0.924715401901
7372 1 63.0054793777 10.6976001025 2.43212536236
7405 1 65.8605702946 10.6985501617 2.2560214542
7371 1 64.5194095062 12.1254881162 3.76433605145
7373 1 64.3512583371 12.1244660785 0.923306962697
6894 1 67.3693938633 9.27166345323 3.58801845084
6896 1 67.2023142708 9.27091140531 0.747502659572
7438 1 68.7127564959 10.6985123321 2.07859606362
7404 1 67.3727463123 12.1263707816 3.58731251319
7406 1 67.2052264676 12.1252514036 0.746655691125
6927 1 70.2187125989 9.27114499687 3.41044584467
6959 1 73.0685323891 9.26879346803 3.23629855459
7470 1 71.5641284247 10.696102674 1.90275447356
6864 1 70.0536288163 9.2698832946 0.569890046029
6897 1 72.9076455169 9.2650718021 0.396493423025
7437 1 70.2240776563 12.1253917006 3.41107161227
7469 1 73.0755229492 12.1203829059 3.23968426843
7374 1 70.0571857051 12.1235952153 0.569350584424
7407 1 72.9084112031 12.1176548264 0.394684726975
6991 1 75.927183258 9.2572210387 3.07861313399
7502 1 74.4173288035 10.6885575077 1.73483888099
6929 1 75.7574802134 9.26217918697 0.224767268382
7501 1 75.9219549268 12.1151997975 3.07617897129
7439 1 75.7522623212 12.1113169728 0.22270957187
7023 1 78.7671787878 9.25309633005 2.92832073574
7534 1 77.2612181226 10.6850506731 1.57189266821
7566 1 80.0941388005 10.6815831237 1.42235350271
7533 1 78.7561997048 12.1161465057 2.92195567931
7471 1 78.5933451457 12.1028199234 0.0525472361616
6961 1 78.5992332487 9.2707557396 0.053678954161
7055 1 81.5963480421 9.25233303782 2.81548744061
7598 1 82.8864363871 10.6715427253 1.35269515321
7565 1 81.5598396994 12.1243073581 2.79572188232
7597 1 84.4082337303 12.1355988155 2.65094363673
7087 1 84.4938822128 9.25702244279 2.72697686542
7630 1 85.6662529429 10.6941865277 1.17318459071
7119 1 87.0532688852 9.26013041762 2.67584544843
8139 1 87.1655471726 12.2140139342 2.50208257654
1538 1 91.2076094621 8.73097026936 2.37251676282
7568 2 87.9604089554 10.4990294858 1.10428483445
7139 2 91.0461753795 10.8389468808 1.40375988998
7648 1 89.3170653327 10.3023721008 3.10477445709
2589 2 1.57681571667 13.4651680386 0.942473252011
2557 1 2.67597938088 15.0752642312 2.45347631159
2047 1 1.19426378683 13.3947454845 3.56844129814
2080 1 4.27833619179 13.5513644585 1.14653393791
2112 1 7.09915562873 13.5319069075 1.27356924488
2621 1 5.61231993134 14.9431446472 2.63118779815
2144 1 9.91576516416 13.548294248 1.43411141021
2653 2 8.41218613432 14.9695041923 2.79059941105
2176 1 12.7530524563 13.5531083102 1.60166301313
2685 1 11.2434736823 14.9756396923 2.94175510313
2687 1 11.4070376849 14.9751043042 0.0962996058151
2717 1 14.1003760191 14.9762184396 3.10312897076
2719 1 14.263494002 14.9749670941 0.258193453803
2208 1 15.6077726812 13.548722513 1.76425264778
2751 1 17.1157764306 14.9738694394 0.425190971609
2749 1 16.9501743602 14.9744462714 3.27000544754
2240 1 18.4589798559 13.5467080695 1.93425012298
2272 1 21.3128313144 13.5480754812 2.11053775275
2783 1 19.9672068913 14.9724636154 0.597505002509
2781 1 19.7993847596 14.9727454204 3.44160803362
2304 1 24.1676856488 13.560444 2.29071396665
2815 1 22.8191713862 14.9754582647 0.772838177132
2813 1 22.6576290925 14.982297379 3.61547825217
2845 1 25.4998806417 14.9997396933 3.78652596743
2847 1 25.6387771217 14.9641878819 0.919966477776
2336 1 26.9735498488 13.5661359638 2.4450253023
2879 1 28.4923438421 14.9642555043 1.08873125619
2368 1 29.7779047278 13.5625698578 2.62426209871
2400 1 32.6235494561 13.5509242525 2.79082488684
2911 1 31.3134316802 14.9773402671 1.28062522451
2432 2 35.3078428425 13.5449423112 2.96876245726
2434 1 35.7242820982 13.5587038993 0.166925341064
2943 1 34.1578496075 14.9877371881 1.44663506146
2975 1 37.0238761206 14.934359807 1.71113693778
3005 2 38.427521631 13.3682745649 3.21033256224
2498 1 38.5931445294 13.5784523305 0.436064562128
3008 2 40.830360442 13.4390258908 1.08786542468
3039 1 43.948244686 12.7757670303 2.89182578701
3040 1 44.550821086 15.0191157528 2.15788684219
7689 1 46.1801850705 13.5294318769 3.38098220983
7690 1 47.3331164883 14.9788986842 1.82871956808
7691 1 45.7059837848 13.3956069178 0.664861296289
7722 1 48.9014500585 13.5883239028 3.25405649399
7723 1 50.1312756002 14.9813030312 1.68830042557
7659 1 48.6062389051 13.4970617213 0.360352393123
7754 1 51.6419987627 13.5595255353 3.08340279404
7755 1 52.9573951523 14.9779813569 1.57139377348
7786 1 54.4582580698 13.551622041 2.93484708758
7692 1 51.4508270244 13.5320777103 0.212211269282
7724 1 54.2790564396 13.5426552378 0.0637527651239
7787 1 55.7885968174 14.975634086 1.41968498545
7818 1 57.2958873156 13.5482447525 2.77130175686
7819 1 58.639353848 14.9730461218 1.26122834767
7850 1 60.1498398793 13.5483582119 2.60284752172
7851 1 61.4962252455 14.9753212399 1.09454746106
7881 1 64.5214529302 14.9787466889 3.76302616084
7882 1 63.0072004584 13.5505863082 2.43032011628
7883 1 64.352965766 14.978283976 0.921887801029
7915 1 65.8629877128 13.5525357229 2.2547639205
7914 1 67.375363923 14.9804234511 3.58632061594
7916 1 67.2074179367 14.9795914717 0.745530034041
7948 1 68.7164140278 13.5527388884 2.07798798681
7947 1 70.2275170302 14.9804082135 3.41018033238
7979 1 73.0767368419 14.9795261405 3.23671537508
7980 1 71.5683092427 13.5499142659 1.90279691213
7884 1 70.0597041614 14.9784580805 0.568409770392
7917 1 72.9081974108 14.9752728509 0.392463162991
8011 1 75.9202737168 14.9795495278 3.06717014033
8012 1 74.4157120477 13.5454862521 1.7315625866
7949 1 75.7497542819 14.9682517363 0.216512752307
8043 1 78.7524300033 14.9835539606 2.90166362232
8044 1 77.2540066409 13.5392950779 1.56395687062
8076 1 80.0773831648 13.5328103122 1.40380317315
7981 1 78.5778622482 14.9501002549 0.0392083703404
8075 1 81.5648956067 15.0138021847 2.72290631254
8108 1 82.8644296185 13.5509141431 1.29635081014
8107 1 84.3483746665 14.936454365 2.61747268019
8140 1 85.7652880408 13.6469957703 1.25086685599
8648 1 86.690545632 15.1991893631 3.17701482214
8650 1 85.9717882687 16.1898921956 1.00936843181
2559 2 89.7327720896 14.6709106127 1.30860711768
8158 2 89.2857825412 12.5016110704 3.38195091646
8160 1 89.3846430576 12.4058040564 0.94985400607
2591 1 0.823428316023 16.9220932384 1.86237715104
3099 2 2.95139345602 17.7851942922 2.41949036268
8669 1 1.4855687847 19.3238133497 1.01746471967
3067 1 1.29919167322 19.2864535653 3.49934249548
2590 1 4.36871351368 16.3442624397 1.10745983582
2622 1 7.08464566251 16.3901025271 1.26856121598
3100 1 4.30189439682 19.2772241839 1.1260730742
3131 1 5.61013570516 17.82668391 2.62729822875
3132 1 7.08777163183 19.2559056352 1.28718957401
2654 1 9.90973891003 16.3986215448 1.43168709668
3163 1 8.40712217936 17.819015943 2.78595756438
3164 1 9.90437845849 19.2470511718 1.43872164389
2686 1 12.7502528303 16.3980578614 1.59986602712
3195 1 11.2399331508 17.8182533226 2.93994873369
3196 1 12.7510975327 19.2520498971 1.598654852
3197 1 11.4075301932 17.8202570102 0.0940631753568
3227 1 14.0968654274 17.826674713 3.10171041901
3229 1 14.2612085697 17.8269547874 0.257993213011
2718 1 15.6064210849 16.4013284208 1.76265086651
3228 1 15.6047211753 19.255025436 1.76272371203
3261 1 17.1144268417 17.8283568512 0.42442643085
3259 1 16.9479264205 17.8275647312 3.26850407519
2750 1 18.4568401921 16.3999847837 1.93169653039
2782 1 21.30656001 16.3991518398 2.10462687099
3260 1 18.4552407745 19.2546037204 1.9314024071
3292 1 21.305782257 19.2496607689 2.10555287785
3293 1 19.9651079529 17.8275142696 0.59540195133
3291 1 19.7954744382 17.8254478995 3.43905516097
2814 1 24.1671821387 16.4004168081 2.27788654966
3324 1 24.1594811656 19.2358900427 2.28535765621
3325 1 22.8162837931 17.8241396761 0.769643338264
3323 1 22.6528624632 17.815349455 3.61278768274
3355 1 25.4981932359 17.8008843296 3.78583607517
3357 1 25.6378889259 17.8385720101 0.918598223941
2846 2 26.9828675549 16.4018677378 2.30403226019
3356 1 26.9735560612 19.2338253175 2.44538744375
3389 1 28.4929907885 17.8403766932 1.08827938304
2878 1 29.7789898013 16.4013567834 2.6116958502
2910 1 32.6321977592 16.4050218166 2.78380213478
3388 1 29.7847727376 19.2378602613 2.6240834745
3420 1 32.6312847834 19.2543794104 2.79574294515
3421 1 31.3129430048 17.8298367495 1.27825446294
2942 1 35.462090178 16.4078988673 2.95619459604
2944 1 35.70774184 16.3979308633 0.156088992498
3452 1 35.43810366 19.2975950158 2.9740300381
3453 1 34.1676799784 17.8414928356 1.45328978607
3454 1 35.676712862 19.3099966253 0.109713917313
2974 2 38.0635039073 16.6021807106 3.14072850643
2976 1 38.5238443623 16.4023727928 0.489454170853
3485 1 36.970970667 17.9117312373 1.60101916549
3517 1 39.7125599192 18.0521842491 1.88359921882
3484 1 38.2213911708 19.300513625 3.20810864614
3486 1 38.5930501983 19.3501996745 0.262287478391
3009 2 41.0272722228 16.3864647663 1.32217637332
3549 2 43.6246802273 16.4773504108 3.62408490472
3007 1 42.2675178874 17.9692251581 2.19414738714
4059 1 43.4646738592 19.6811097432 3.35237437107
3516 2 40.8773086312 19.307576189 3.63202802855
2527 2 41.2847026121 19.4310623185 0.426762505846
3550 1 43.4637607581 19.4294291402 0.69966803999
3042 1 45.7181410734 16.3220077812 0.495085109056
8199 1 46.1628464457 16.4085159175 3.3846032629
2496 1 44.6490703056 17.8556584697 2.03196384144
8200 1 47.3975270699 17.8036469828 1.86432377526
8709 2 46.1589760786 19.252277361 3.3840928332
8201 1 45.9913995376 19.1088655072 0.493107530025
8169 1 48.6424455656 16.421817208 0.349722123407
8232 1 48.8697592228 16.4065387039 3.2138927452
8233 1 50.1091870062 17.875227779 1.67533882516
8742 1 48.8369002534 19.2907292846 3.20780030092
8679 1 48.5205669852 19.31191447 0.280439971476
8264 1 51.6266583622 16.426121571 3.06493253199
8265 1 52.9542904929 17.8511055954 1.56849965687
8296 1 54.4577829305 16.4113623307 2.92866275652
8774 1 51.6251953131 19.2794800434 3.06888050892
8806 1 54.4654538891 19.264761924 2.93156744896
8202 1 51.4739723153 16.4001275355 0.235057671769
8712 1 51.4434131426 19.3117884027 0.224982893118
8744 1 54.2910258655 19.2623490184 0.0705269629943
8234 1 54.2809926764 16.4078203669 0.0663089287588
8297 1 55.7965398345 17.8319981128 1.42104266199
8328 1 57.301809566 16.402689213 2.7696000747
8838 1 57.3090613923 19.2569667769 2.77123540286
8329 1 58.6454854053 17.8285185065 1.26134062419
8360 1 60.1539605688 16.4018336118 2.60167006595
8361 1 61.4988395481 17.8304421424 1.09400189714
8870 1 60.1575930873 19.2576804004 2.60250254463
8391 1 64.5227099946 17.8328968051 3.76254512077
8392 1 63.009240819 16.4043272859 2.42920306739
8393 1 64.3537760722 17.8331104 0.920886538792
8425 1 65.864417165 16.4066877451 2.25361973032
8902 1 63.0104498346 19.2597903351 2.42931588933
8935 1 65.8641994358 19.2617998933 2.25296690131
8424 1 67.3757889631 17.8349866309 3.58540000907
8426 1 67.2076967219 17.8348305096 0.744214201904
8458 1 68.7179699064 16.4077466268 2.0767272665
8968 1 68.7166659016 19.263835603 2.07520179552
8457 1 70.2272138734 17.837184643 3.40846063933
8489 1 73.0763526411 17.8406063288 3.23302991917
8490 1 71.568930144 16.407955898 1.90061873843
9000 1 71.5673610577 19.267115544 1.89841832557
8394 1 70.0594248882 17.8358930955 0.566751604863
8427 1 72.9077130827 17.8368641803 0.390186307631
8521 1 75.9210987054 17.8458779995 3.05883891302
8522 1 74.4153442805 16.4075683946 1.72586469763
9032 1 74.4150753099 19.2727520822 1.72356093629
8459 1 75.7489489134 17.8370645817 0.213332272185
8553 1 78.752568211 17.8538815773 2.87933061838
8554 1 77.2515956083 16.405022489 1.55037756448
8586 1 80.0643632452 16.392849799 1.35710645654
9064 1 77.2535504809 19.2826630564 1.54638373973
9096 1 80.0612669916 19.3028548985 1.34412038958
8491 1 78.5753547552 17.8350879681 0.0347077272454
8618 1 82.9753999167 16.4031782753 1.25927162463
8585 1 81.451838958 17.8316449459 2.66846302632
9128 2 82.6832864571 19.4466530354 1.19950489723
9126 1 83.2085720214 19.1790789035 3.62508521559
8617 2 84.9097583685 17.2564047912 2.8540451699
9180 2 85.925564999 19.9126016532 0.960073969233
9127 1 85.8810684285 19.3710024431 3.54966921801
8670 2 87.7912980654 17.4942885287 0.535073822049
8647 1 88.6196360261 16.5534620498 2.57937849107
8649 2 88.2059036549 18.8694293294 3.32338432096
9179 1 90.5457529826 18.4661980551 2.18832669361
3068 1 89.8915469131 16.6692454463 0.40441830121
9097 2 89.4243488588 20.2776401702 0.624483825307
3609 1 2.77762198446 20.8191528548 2.47077381122
3578 1 1.5279739359 22.1087341361 0.920374024545
4119 1 2.70874111021 23.5492373231 2.5054308345
3577 1 1.05262053729 22.1891906608 3.75800554795
3641 1 5.5757230182 20.7028007177 2.6497246715
3610 1 4.29293466914 22.1467855445 1.13477492229
3642 1 7.08507493446 22.1254344459 1.29502048616
4151 1 5.57377444805 23.5571523275 2.66362796376
3673 1 8.40807181429 20.6879343313 2.7941995482
3674 1 9.9120258836 22.118076152 1.44194319624
4183 1 8.41217726645 23.5441884474 2.80276601754
3705 1 11.2468427309 20.6807896153 2.94213749947
3707 1 11.412171069 20.6825228318 0.0940492392345
3737 1 14.097141392 20.6813316574 3.10262961357
3739 1 14.2618920328 20.682857109 0.258556575623
3706 1 12.7553390872 22.1111256637 1.59979053588
4215 1 11.2533980179 23.5392563802 2.94835399632
4217 1 11.417613311 23.5446024123 0.0943701307849
4247 1 14.100376802 23.5375750797 3.10610833294
4249 1 14.2654668742 23.539945396 0.25986376045
3771 1 17.1142288208 20.6839036497 0.425884557312
3769 1 16.9472075028 20.6823684529 3.26909684337
3738 1 15.6062396397 22.1112714714 1.76476643822
4281 1 17.1163166633 23.540904376 0.428670353843
4279 1 16.9497386021 23.5400791123 3.27257246112
3803 1 19.9648496455 20.6824802137 0.597282568693
3801 1 19.7942801139 20.6798084426 3.43936963601
3770 1 18.4559847218 22.1116427396 1.93401131064
3802 1 21.3017664762 22.1089797271 2.10675013637
4313 1 19.9643877449 23.5413624205 0.599758895227
4311 1 19.7946962712 23.5420262914 3.4434538337
3835 1 22.8131028986 20.6783969789 0.772925233622