ITEM: TIMESTEP
16000
ITEM: NUMBER OF ATOMS
10200
ITEM: BOX BOUNDS pp pp pp
0.0 91.5382635842
0.0 28.55
0.0 45.7691317921
ITEM: ATOMS id type x y z
8 2 1.71399657621 1.95841856508 1.06042178604
549 1 2.77956884895 3.58353689957 2.45713800472
39 1 2.81916824474 0.67984567482 2.58400328409
519 1 0.129878227752 3.28036178664 0.212855838476
40 1 4.29128404072 2.13708712514 1.17366703665
72 1 7.08637698866 2.13814562858 1.33303042078
581 1 5.55489738578 3.58638329558 2.67341634571
71 1 5.581055417 0.698856545419 2.68333431456
104 1 9.92942352499 2.13454479877 1.48155485018
613 1 8.42036930175 3.56870419628 2.83188942768
103 1 8.42488758453 0.710880771158 2.83524704086
136 1 12.7767936352 2.13441850285 1.63672425914
645 1 11.2723442241 3.56583824904 2.98264216966
647 1 11.4337949223 3.56092929161 0.130681312821
677 1 14.1206018279 3.56526398543 3.14208712074
679 1 14.2816870151 3.56302445649 0.293964350828
137 1 11.4326194357 0.701308092118 0.130889285215
167 1 14.1233154066 0.709037022711 3.1432332171
169 1 14.283488773 0.705088321991 0.294263376236
135 1 11.2739438798 0.708782597182 2.98429835371
168 1 15.6274082366 2.13585321602 1.80193985366
711 1 17.1340003292 3.56394702896 0.463195554686
709 1 16.9695738486 3.56409206603 3.31096366713
199 1 16.9732511602 0.709395699803 3.31216108778
201 1 17.1367439286 0.708786117346 0.463105394905
200 1 18.478504736 2.13713276342 1.97255834445
232 1 21.3297181198 2.13840486405 2.14353705961
743 1 19.9877954529 3.56443259026 0.635363719717
741 1 19.8184225803 3.56378241766 3.48322203405
231 1 19.8205925107 0.710232834709 3.48429562212
233 1 19.9894578958 0.711999560696 0.634042507958
264 1 24.1835154641 2.14044439069 2.31721225614
775 1 22.8457211945 3.56337664672 0.806705082318
773 1 22.6657383265 3.56325616552 3.65621651454
265 1 22.8461884347 0.715208994618 0.804700023898
263 1 22.6640611607 0.71290588599 3.65585796386
297 1 25.7020435136 0.719585214835 0.975846711971
807 1 25.7034920462 3.56368621905 0.978386436927
296 1 27.0409722095 2.14693343732 2.49345371107
839 1 28.5539111675 3.56904231119 1.14611658075
329 1 28.5472226075 0.72431942918 1.14177596397
328 1 29.8889221003 2.15761966194 2.65845961349
360 1 32.7138514707 2.14809730121 2.82446154918
871 1 31.4048077765 3.57416271047 1.31559064726
361 1 31.3844193523 0.721173908158 1.30434700229
392 1 35.5314190782 2.16443640655 3.00180586136
394 1 35.77311394 2.14869472332 0.133536637855
903 1 34.2364526594 3.57412775332 1.4835996768
393 1 34.2270164386 0.720776031536 1.46829079907
426 1 38.6450309871 2.13915036091 0.257003860694
935 1 37.0981320236 3.58481401419 1.65292051772
967 1 39.8718973848 3.57598741876 1.81178775625
424 1 38.3172132818 2.16254181684 3.19425503537
457 1 39.7693561639 0.744569193423 1.8204987719
425 1 37.0655382577 0.719881409331 1.63026546942
999 1 43.4951032171 1.75678650011 2.57270401641
456 1 40.9762295166 2.13060812791 3.38054961669
1510 2 42.3743188319 3.59513656365 2.28878616328
458 1 41.5718151425 1.93793502257 0.520341545613
5081 1 43.4395773202 0.200236491951 0.778645689239
5650 1 47.133735679 3.55418249493 1.70628495501
5649 1 45.7814591783 2.4118450932 3.2616307332
5651 1 45.5438335651 1.83712967052 0.461238360537
489 1 45.2762975778 0.229788060494 2.24223930382
5140 1 47.4055767834 0.672990586007 1.76321739092
1000 1 44.4126172104 4.00434319246 1.12318276151
5173 1 50.0361210117 0.704294285643 1.6633378265
5682 1 48.6811324817 2.181139009 3.16072019502
5619 1 48.5017370296 2.10023007987 0.232106563211
5683 1 50.0085154882 3.55249576067 1.65434759202
5205 1 52.8978900122 0.701457522273 1.55037563705
5714 1 51.535508234 2.1382852133 3.04349064235
5746 1 54.3926403606 2.13543990692 2.90551719279
5652 1 51.382280905 2.1244768634 0.186863897311
5715 1 52.8791652353 3.55986313178 1.54621199947
5684 1 54.2380971111 2.13389184828 0.0528382913936
5237 1 55.7468851567 0.701553835104 1.3958718348
5778 1 57.2464779312 2.1314957604 2.74689095854
5747 1 55.7369953253 3.56275960327 1.40234779907
5269 1 58.5894232793 0.695386369316 1.23234495634
5301 1 61.4413057671 0.686819194292 1.06203607226
5810 1 60.1011179838 2.12335681594 2.5758068429
5779 1 58.591673986 3.55930217875 1.24279472001
5811 1 61.4478950381 3.55037367648 1.07022045699
5331 1 64.4773851996 0.684337379456 3.73167119155
5333 1 64.301038854 0.685422522616 0.887715815329
5842 1 62.9582541533 2.11505868413 2.39935780824
5841 1 64.4757413189 3.54121080165 3.73130647222
5843 1 64.3022541938 3.54269804484 0.890228421749
5875 1 65.8143403719 2.11159022149 2.22008604373
5364 1 67.3296556108 0.683251316473 3.5530417814
5366 1 67.1545021956 0.684653619048 0.706339936809
5908 1 68.6628199271 2.1113181041 2.03829555039
5874 1 67.327350741 3.53756114436 3.552261973
5876 1 67.1531676802 3.53971885367 0.707581661709
5397 1 70.1737523469 0.685323227429 3.37000264384
5429 1 73.0064576115 0.686878354325 3.18273368797
5940 1 71.5085474185 2.12101559928 1.85770582412
5334 1 70.0031300661 0.687036241672 0.524104970227
5367 1 72.8498044671 0.691132542547 0.345640976404
5907 1 70.1684289993 3.54148224508 3.36923430734
5939 1 73.0050568805 3.56828215545 3.18326132305
5844 1 69.9987328449 3.54085879332 0.526169519485
5877 1 72.8536236906 3.55960897265 0.361848818322
5461 1 75.8208384363 0.689519951759 2.98121525768
5972 1 74.3441807121 2.13780998875 1.68217214431
5399 1 75.7094543314 0.687229244256 0.188270398475
5971 1 75.8334423572 3.5973037508 2.99809277869
5909 1 75.6948986944 3.55244584717 0.200661695161
5493 1 78.7415447723 0.686905582817 2.92376576491
6004 1 77.215231378 2.11444677562 1.54947046325
6036 1 80.0458414155 2.11296541356 1.39684842036
6003 1 78.737732521 3.54134578239 2.88031953874
5431 1 78.5557756551 0.677012920891 0.0372512891291
5941 1 78.5385086078 3.53278044586 0.0206944075546
6068 1 82.6666321809 2.13140220826 1.20772963594
5525 1 81.544085384 0.726749075609 2.80833080935
6035 1 81.5568387597 3.58055436634 2.76336300182
6608 2 84.3022561365 3.55206934403 2.45530752614
5590 1 84.5475505931 0.992472961762 2.29304016563
6067 1 86.0939515916 2.36976462237 3.80600435248
5527 2 85.9337295796 1.41926311925 0.187580467159
6610 1 87.9899911624 3.17598570229 2.70750226383
5608 1 91.458291783 0.826071143086 2.25992197735
6117 1 88.5249413842 0.283041705295 2.35349536281
5609 1 89.6409211027 1.94352291726 0.923201212103
6097 1 90.0138417704 2.15775748512 3.59486077443
6120 2 87.9851162338 3.59901124126 0.428301817399
518 2 1.47449233488 5.24336503743 0.810512812341
1059 1 2.65892119085 6.45952176319 2.4809543018
1028 1 1.21325436947 7.93221985368 0.606208654992
550 1 4.22266555394 5.03344184496 1.15908831187
582 1 7.08609802429 4.99898688096 1.33043932317
1060 1 4.23633825221 7.83783769375 1.16430580251
1091 1 5.55436423105 6.41979155655 2.67693537156
1092 1 7.0906426046 7.84226676253 1.33002872074
614 1 9.92971691635 4.99317795215 1.48033304152
1123 1 8.42186295658 6.42170814697 2.83325946218
1124 1 9.92480750381 7.85576910758 1.47831024819
646 1 12.7746406727 4.99399440785 1.63578063756
1155 1 11.2691162839 6.42539336941 2.98114645849
1156 1 12.7698661205 7.85616812972 1.6340738214
1157 1 11.4316087639 6.42404267318 0.129412500384
1187 1 14.1168370211 6.42427960326 3.14022167186
1189 1 14.2786580389 6.42348858122 0.29339968141
678 1 15.6241760822 4.99298622711 1.80103565705
1188 1 15.6214952553 7.85148689885 1.80002697424
1221 1 17.1317218937 6.42023311484 0.463228395068
1219 1 16.965826039 6.42080839836 3.30893835692
710 1 18.4756278594 4.99124121506 1.97219977649
742 1 21.3292669595 4.98956350565 2.144911166
1220 1 18.4742521147 7.84601986152 1.97198211485
1252 1 21.3278246939 7.84035882812 2.14618647447
1253 1 19.9864845198 6.41643173668 0.636197114726
1251 1 19.8159123978 6.41737649465 3.48193991829
774 1 24.1845386122 4.98696286087 2.31958717428
1284 1 24.18367039 7.83569844742 2.32289364696
1285 1 22.8441726019 6.41255067527 0.809770547748
1283 1 22.6683878739 6.41430161683 3.65750602141
1317 1 25.701640553 6.40978050476 0.984438692928
806 1 27.0435122221 4.98642505164 2.49751175314
1316 1 27.039236591 7.83285613677 2.5003714874
1349 1 28.5564304572 6.41266338304 1.1554995147
838 1 29.8980568419 4.98736142462 2.66682500807
870 1 32.7278057726 5.00399943885 2.83604063147
1348 1 29.8825327747 7.84929812198 2.66275961644
1380 1 32.7419301454 7.8632671471 2.83284329816
1381 1 31.4104271302 6.42583749293 1.32315067424
902 1 35.5436547941 4.98078937606 3.02061254159
904 1 35.7911024861 5.00166490828 0.152987918064
1412 1 35.5914620979 7.84061296954 3.02931535617
1413 1 34.2660315178 6.4271320211 1.49980695662
1414 1 35.8340609096 7.85370430572 0.185691422492
1445 1 37.1033229423 6.39735676454 1.67955363179
934 1 38.381366459 5.00346725119 3.23771860082
1444 2 38.2750412783 7.69954466334 3.33933838296
1477 1 39.9175445955 6.42804479518 1.89050705562
936 1 38.6849109549 5.00924881033 0.311711689462
1446 1 38.611295179 7.80425144374 0.271846293123
966 1 41.0346234244 4.9620675811 3.48943615313
1509 1 42.5537657381 6.86007178829 0.650410768164
968 1 41.5862455097 4.73898693049 0.446882632947
1511 2 42.1378446459 7.00031728613 2.75923428468
6159 1 45.9899228828 5.07465279683 3.24515636593
6160 1 47.1653601306 6.53534227652 1.79053923099
6669 1 45.9298268001 7.92678750255 3.3745342755
6161 1 44.4708248192 6.47624225587 2.03988158399
6671 1 45.2444542254 7.95618571665 0.387773822952
6192 1 48.6632548609 4.98996384716 3.15755466201
6193 1 49.9964175254 6.41015017681 1.66088395033
6129 1 48.4854751359 4.97163388727 0.297199853345
6702 1 48.7452607264 7.87316713721 3.17071925112
6639 1 48.4995502728 7.85968317003 0.275080389741
6224 1 51.524539524 4.98462690897 3.03594417067
6225 1 52.8682341511 6.41760391291 1.54322243082
6256 1 54.3839319247 4.98814821157 2.90348900815
6162 1 51.363924277 4.98985002571 0.190670254793
6734 1 51.5279795605 7.83589471132 3.04030761137
6766 1 54.3736309481 7.84433018679 2.90871227526
6672 1 51.3415075369 7.83487913095 0.1650692571
6194 1 54.223168867 4.99037456628 0.0506865750562
6704 1 54.2112124997 7.84191358926 0.0450044987312
6257 1 55.7264427437 6.4184079082 1.40315975275
6288 1 57.239877985 4.99123145844 2.75168995734
6798 1 57.2340726643 7.84156599663 2.75421623744
6289 1 58.5886017945 6.41433442826 1.24453165705
6320 1 60.1006972078 4.98433910212 2.58161872319
6321 1 61.4496223519 6.40737564856 1.07169308492
6830 1 60.1001081643 7.8367590143 2.58257813372
6351 1 64.4781512438 6.40037846391 3.73128164227
6352 1 62.9609807279 4.97519309319 2.40249840161
6353 1 64.3057222941 6.40113233969 0.891053835468
6385 1 65.8150093791 4.9686509007 2.22044661859
6862 1 62.9633806677 7.83171587852 2.40281461446
6895 1 65.8182429615 7.82813428115 2.2199638453
6384 1 67.3261533707 6.39652695656 3.55041667359
6386 1 67.1542658914 6.39682015965 0.707314292837
6418 1 68.6614196476 4.96801148956 2.0388047615
6928 1 68.6643650194 7.82345362502 2.03808108614
6417 1 70.1655584943 6.39571096063 3.36793324351
6449 2 72.8740426536 6.39615118163 3.19552867925
6450 1 71.4885696944 4.96014508108 1.84589031578
6354 1 69.9969336049 6.39455049467 0.526245279331
6387 1 72.8471539482 6.39299478055 0.365786412198
6960 1 71.494441278 7.82873201733 1.8471032559
6481 2 76.0090501024 6.38033049036 3.02080693869
6482 1 74.3465156353 5.00275347822 1.69866938664
6419 1 75.697947767 6.38293895481 0.195129991748
6992 1 74.3620331892 7.78195442553 1.70862600458
6513 1 78.7179684321 6.38144407166 2.86797735947
6514 1 77.2261577695 4.95187474606 1.51293067626
6546 1 80.0441935701 4.97132655151 1.36641290672
7024 1 77.2200448328 7.81354458367 1.50353122471
7056 1 80.0477490164 7.80834292769 1.34784117882
6451 1 78.5356971435 6.385153566 0.00602465813486
6545 1 81.5694356598 6.38571260281 2.68819382389
6578 1 82.8953561258 4.97937464344 1.17035636765
7088 1 82.8796016737 7.84069103031 1.17193503167
6577 1 84.4543453396 6.48283082045 2.41412094306
6609 1 85.8642461213 4.73491722136 1.1740972104
7118 1 85.6716354419 7.97431797295 3.71357930742
6100 1 87.1947621089 6.73664204251 2.29958429954
7138 1 86.0522750827 5.01869149607 3.66519307123
7140 1 91.5062581875 6.42278548048 2.31124220926
6630 1 89.3727863054 6.93159581245 3.49277708107
6119 2 89.3966769087 6.34175501869 1.12398311563
6579 2 89.9500601552 4.47162114476 3.44387882723
1569 1 2.71653216555 9.1911652282 2.46587343433
1539 1 1.40531373514 10.5962517394 1.02910173735
2079 1 2.94428077243 12.0341589753 2.45519335231
1570 1 4.32282461874 10.6298590985 1.1539485513
1601 1 5.5753769993 9.2468892132 2.69566772696
1602 1 7.08203655587 10.7123295688 1.32860355756
2111 1 5.56680078682 12.1464895571 2.68684476372
1633 1 8.41468075706 9.28142480242 2.83225202231
1634 1 9.91266790946 10.7241985914 1.47322589092
2143 1 8.40617487371 12.1505848337 2.82943360025
1665 1 11.2623848165 9.28790223754 2.97805170556
1666 1 12.7647141823 10.7178102603 1.63150632126
1667 1 11.4238265675 9.29014615173 0.127260310621
1697 1 14.1137963854 9.28354352046 3.13838034459
1699 1 14.2757960329 9.28422569972 0.293080511042
2175 1 11.2584243114 12.1472438852 2.97608145702
2177 1 11.4148089832 12.1572993781 0.123361916237
2207 1 14.114849501 12.1388528729 3.13841298862
2209 1 14.2769548031 12.1414702223 0.294255466016
1698 1 15.6221167261 10.7087830721 1.80047674504
1731 1 17.1314787945 9.27732068544 0.464256420807
2241 1 17.1342647548 12.1350477497 0.466659920158
1729 1 16.9652318978 9.27676829715 3.30852899336
2239 1 16.968332223 12.132464451 3.31023975498
1730 1 18.4754911402 10.7018792796 1.97395973209
1762 1 21.3277780289 10.6944710073 2.15012962839
1763 1 19.9857579927 9.27151738257 0.638937236694
2273 1 19.9877550739 12.1278008858 0.642214098328
1761 1 19.8157126314 9.26998046598 3.48294613643
2271 1 19.8182285228 12.124274964 3.48637434867
1794 1 24.1786336619 10.6883251889 2.32690359379
1795 1 22.8408994378 9.26525784206 0.814322437049
2305 1 22.8388930647 12.1205329755 0.81827196966
1793 1 22.6664743379 9.26223148056 3.65881030228
2303 1 22.6666275345 12.1171770031 3.66467095973
2337 1 25.6872585108 12.1163881373 0.992886161624
1827 1 25.6956247273 9.26222193345 0.990279856404
1826 1 27.0275999041 10.6892715028 2.50287290125
1859 1 28.5469214257 9.26796786015 1.15925846827
2369 1 28.5387319213 12.1150473763 1.16425949395
1858 1 29.8768534141 10.6926108843 2.67438581501
1890 1 32.7354359366 10.7008279832 2.85007707326
1891 1 31.4122496098 9.27678747345 1.32934752434
2401 1 31.4009657738 12.1122364888 1.33364234999
1922 1 35.5776751525 10.7436066098 3.03269214397
1923 1 34.2992175963 9.28268048204 1.51406231989
1924 1 35.902147548 10.6899637993 0.209325260157
2433 1 34.2865248167 12.1104206403 1.50295261725
1892 1 32.9593086846 10.6914812037 0.00134818088113
1955 1 37.1502466958 9.2758547131 1.73888768107
1954 2 38.0639927153 10.876628719 3.51546720968
2465 1 37.2490340514 12.1603234887 1.68605554422
1956 1 38.901990873 10.325474506 0.298201412725
1987 1 40.9144040609 8.44444837059 0.85267118916
1988 2 40.7416914747 10.1701810996 2.16176100768
2019 1 42.8499286751 9.87074592159 0.54219108856
2530 1 44.1667462644 12.0226585371 1.69926941818
2020 2 44.5175067174 9.48508583544 2.20762825671
7179 1 46.1308304932 10.865524846 3.22300839393
7181 1 45.6682352371 10.6514500482 0.40124921326
6670 1 47.1205144401 9.11739183775 1.73343833247
6703 1 50.0377343113 9.26405756258 1.63003076609
7212 2 48.7372845772 10.5392336029 3.05563574303
7149 1 48.42989446 10.7765748601 0.379472230807
7213 1 50.0821721385 12.1442841181 1.69658182183
6735 1 52.8585017472 9.26611567773 1.53660167313
7244 1 51.5313008666 10.6792214583 3.04670320444
7276 1 54.3774901327 10.6825643232 2.90779321387
7182 1 51.3420805489 10.718205635 0.179556867486
7245 1 52.8705372439 12.110289444 1.54619511281
7214 1 54.2126177141 10.6911216726 0.0440938508411
6767 1 55.7229332369 9.26340010426 1.40024750184
7308 1 57.2353077808 10.6831362646 2.75307346151
7277 1 55.726701741 12.1083776656 1.40027460392
6799 1 58.5872619294 9.26189089655 1.24310212609
6831 1 61.4506340386 9.25992052161 1.07127893769
7340 1 60.1006951348 10.6843727964 2.58221007081
7309 1 58.5880223937 12.1085399246 1.24240985811
7341 1 61.450935963 12.1106464278 1.07109430026
6861 1 64.4809963 9.25794989361 3.73104882376
6863 1 64.308872225 9.2580770012 0.891047145977
7372 1 62.9649140745 10.6853983744 2.40276138108
7405 1 65.8231358204 10.6857081225 2.22018155166
7371 1 64.483303551 12.1128402718 3.73097291585
7373 1 64.3112223096 12.1125235877 0.891581669796
6894 1 67.3320880873 9.25614770899 3.54948354126
6896 1 67.1603806721 9.25535455137 0.707940760204
7438 1 68.6738171957 10.6829965874 2.03815473744
7404 1 67.3400214419 12.113584562 3.55004168389
7406 1 67.1674387516 12.1125834007 0.709431100557
6927 1 70.1742049262 9.24852567993 3.36677723283
6959 1 73.0216179542 9.220055752 3.18540532412
7470 1 71.5217513743 10.6640191078 1.85857152663
6864 1 70.005841846 9.24762716315 0.526650780975
6897 1 72.8635033864 9.21929384461 0.362562694626
7437 1 70.1926196986 12.1073304707 3.36958242206
7469 1 73.0319587927 12.0831405503 3.18929402826
7374 1 70.0203021503 12.1062761566 0.529099195014
7407 1 72.8593536483 12.0845479072 0.343808532152
6991 1 75.8719788509 9.20251032852 3.01993864626
7502 1 74.3660115249 10.6382995211 1.68751106934
6929 1 75.6893615374 9.20760136627 0.186180964312
7501 1 75.8719587891 12.0682255918 3.01325179641
7439 1 75.7001918416 12.0735270713 0.165331089789
7023 1 78.7228026774 9.21599714651 2.85706732046
7534 1 77.2045817193 10.6357256055 1.50941577472
7566 1 80.0359324959 10.6403540936 1.32960010375
7533 1 78.7136600853 12.0529868784 2.85928987484
7055 1 81.5785053519 9.23165462446 2.69423873373
7598 1 82.7730054265 10.6862947449 1.12028248919
7565 1 81.5442804847 12.0416386653 2.69927911113
7597 1 84.2644165023 12.0405104485 2.47679908926
7120 1 86.0640414619 8.35326165575 0.871945204907
7087 1 84.3972031375 9.36544542045 2.24658528925
7630 2 85.6024913835 10.8837480615 0.622480736471
8139 1 87.1799605445 11.8236569504 2.4076559633
7119 1 87.5716336273 9.18922652651 3.30953509136
7628 2 85.7285697749 10.8251955886 3.81364431527
7137 1 89.175238074 8.41318342091 1.76546220131
1538 1 91.4404160179 8.91651235797 2.61884053422
7568 1 87.9008320353 10.0296957191 0.645451196427
7139 1 89.4085164983 10.7369672657 2.39424504238
7090 1 90.6961682019 9.86771776408 0.417217118878
2589 1 1.47590971737 13.3097683437 1.04406714353
2557 1 2.81262411382 14.9523676211 2.30989054885
8159 1 0.657206083472 15.5689855449 3.0010617507
2047 2 1.41191797763 13.3116108418 3.5418048253
2080 1 4.32827204061 13.5772592928 1.10024668937
2112 1 7.07557029823 13.602858268 1.32127459782
2621 1 5.54289096253 14.9931217504 2.71240534587
2144 1 9.90639145251 13.5933318641 1.46806557067
2653 1 8.41582487818 14.9924428714 2.85841769066
2176 1 12.7655682486 13.5739186043 1.63017077346
2685 1 11.2756448264 14.9839498971 2.99917339703
2687 1 11.4147510144 15.0192063404 0.117373362869
2717 1 14.1205298224 14.9884867048 3.14557216885
2719 1 14.2784298107 14.9984943835 0.294835613187
2208 1 15.6247947343 13.5645971189 1.80212103628
2751 1 17.1383378889 14.9906775484 0.47032575414
2749 1 16.9730180246 14.9862110888 3.31449356693
2240 1 18.4809842233 13.5594383699 1.97841423928
2272 1 21.3298902787 13.5504160227 2.15509304146
2783 1 19.9956635694 14.9884418935 0.650785728705
2781 1 19.8284801897 14.984290588 3.49321131401
2304 1 24.1741836347 13.5446374118 2.33267218423
2815 1 22.8412310819 14.9805045861 0.827858641447
2813 1 22.6549208773 14.9617416498 3.65439326058
2847 1 25.6784586627 14.9747570802 1.00090952691
2336 1 27.0160165361 13.5421998809 2.50534297335
2879 1 28.5226824894 14.9701600647 1.16889368918
2368 1 29.8598352338 13.5415487868 2.67536345185
2400 1 32.7091605365 13.5402130243 2.84163310656
2911 1 31.3790451426 14.9598492339 1.33310103208
2402 1 32.9346017192 13.5298843972 0.00342600942191
2432 1 35.5357329774 13.5772667675 2.99450441816
2434 1 35.8207470854 13.5466720291 0.220970604575
2943 1 34.2427581593 14.9676266593 1.50757682204
2975 1 37.2160926449 14.9097678836 1.79176558538
2498 2 39.2896465843 13.5780874231 1.84399902949
2497 2 42.487457361 12.4809826778 3.20411200656
3039 1 43.8290437035 14.1454688307 2.80145546809
3009 1 41.4325939514 14.6834659169 2.1913574782
3040 1 43.5863402054 15.8637790946 1.20106772519
3008 1 42.5650030263 14.1206745329 0.0925515535978
3549 1 43.2479477748 16.2490744454 3.56532698359
7180 2 46.7170857147 12.4721149854 1.30580861993
7689 1 46.1557006025 13.4794887114 3.3188114268
7690 1 47.3341792501 14.9506500451 1.7430451365
7691 1 45.2246799902 14.1106952974 0.773576005631
8199 1 45.8118330201 16.0284011343 3.1673309225
7722 2 48.9074540939 13.6820644313 3.36938973613
7723 1 50.0646421376 14.9110789408 1.64143062379
7659 1 48.4910503156 13.5851643025 0.12772607885
8232 1 48.8303857455 16.2926195002 3.15061984867
7754 1 51.5703991702 13.5186574361 3.07114010485
7755 1 52.8741459881 14.9485165881 1.54010484324
7786 1 54.3862485559 13.5231231345 2.91349814192
7692 1 51.344239536 13.5209087619 0.160666838267
7724 1 54.2152559319 13.5337649287 0.0412160392702
7787 1 55.7305002616 14.953423185 1.40000235932
7818 1 57.239436918 13.5278167582 2.75321619045
7819 1 58.5898387131 14.9576435515 1.24226231471
7850 1 60.1015210203 13.5330510194 2.58210679598
7851 1 61.4511638658 14.9621475746 1.07131226444
7881 1 64.4843275069 14.9667375516 3.73087110298
7882 1 62.9655591215 13.5378099881 2.40292124544
7883 1 64.3120542967 14.9655300692 0.892452286073
7915 1 65.8269000055 13.540311237 2.22123439499
7914 1 67.3451768509 14.9675860766 3.55153115098
7916 1 67.1712147743 14.9664483669 0.711641035465
7948 1 68.6848454203 13.5395288175 2.04127659854
7947 1 70.2057501813 14.9661129548 3.37517315714
7979 1 73.0689102124 14.9621019257 3.20344099793
7980 1 71.5383104822 13.5336072087 1.86338642671
7884 1 70.0274025493 14.9651931631 0.532720058824
7917 1 72.8737871588 14.9617679466 0.351926228877
8011 1 75.8309246934 14.8777291024 2.97154812224
8012 1 74.3569736364 13.4979884542 1.66496459171
7949 1 75.7226225421 14.9549760188 0.188519950865
8043 1 78.7225390372 14.8809456362 2.8494561197
8044 1 77.2190033426 13.4821361092 1.49418064636
8076 1 80.0225642663 13.4743321956 1.34614732895
7981 1 78.5405227551 14.9455092863 0.010247498307
8075 1 81.5460092294 14.852406869 2.71393720157
8108 1 82.8237601308 13.5260977174 1.16973597722
8618 1 82.7438224481 16.246704881 1.34040779196
8107 1 84.411062149 14.95619882 2.66029517176
8140 1 85.3440944734 13.4903819114 0.971821506654
8648 2 87.0525188673 14.4470388519 2.06044980103
7599 1 87.394967929 12.7677727194 0.267884438034
7648 2 90.8417638862 12.2379550688 1.42172624625
8647 1 88.3623607193 16.2975690464 0.944239790046
2559 2 90.2041461146 15.5839297074 2.03203706288
2591 2 1.54102140951 16.8082930033 1.05864585469
3099 1 2.60232571946 17.764838705 2.78484778228
8669 1 1.27041676273 19.2746630421 1.29481833579
2590 1 4.22569695611 16.4618685502 1.23597215996
2622 1 7.06648416032 16.4200910597 1.41011107547
3100 1 4.20933283995 19.2772827511 1.36533859551
3131 1 5.5305237621 17.8356769782 2.78647364789
3132 1 7.07496443938 19.3174945491 1.48428001899
3133 1 5.7482512993 17.880073697 0.0536975226253
2654 1 9.94538407226 16.4068881895 1.52420274617
3163 1 8.42642167703 17.8473644693 2.89192755694
3164 1 9.97525296078 19.2873619548 1.57029345809
3165 1 8.59464850975 17.8503201531 0.207431414482
2686 1 12.7729985821 16.4204009145 1.64308990825
3195 1 11.2892612602 17.8374612513 3.02041780739
3196 1 12.7785188413 19.2713564108 1.6522646658
3197 1 11.4139846578 17.8551510782 0.142511874445
3227 1 14.12597053 17.8417565656 3.15305953001
3229 1 14.2817692921 17.8455875367 0.302205094251
2718 1 15.6287860932 16.4162515683 1.80792891164
3228 1 15.6317408835 19.2684813549 1.81080412791
3261 1 17.141130222 17.8409000084 0.473167862204
3259 1 16.9760680213 17.8403437517 3.31804540107
2750 1 18.4864998421 16.4143464445 1.98482846386
2782 1 21.3473250376 16.4169763195 2.17455997181
3260 1 18.4881165715 19.2637162735 1.98517363609
3292 1 21.348539631 19.2541899872 2.17272564384
3293 1 19.9987488902 17.8370622336 0.652519856331
3291 1 19.8385088093 17.8378303049 3.50060481238
2814 1 24.1713362945 16.4039873918 2.35245863074
3324 1 24.172337285 19.2572804351 2.3500119587
3325 1 22.848828076 17.8325886896 0.836697359239
3323 1 22.6897827402 17.8344195706 3.69098688141
3357 1 25.6695496459 17.8262780402 1.00792822799
2846 1 26.992043975 16.4059757364 2.52044778058
3356 1 26.9910992403 19.2419831736 2.51732440729
3389 1 28.5165891725 17.8180892465 1.16695309399
2878 1 29.8441516589 16.3916194128 2.67725457687
2910 1 32.6864245178 16.3851971483 2.84475049937
3388 1 29.8422385157 19.2401536105 2.67278461056
3420 1 32.6785679587 19.2286624036 2.84171203904
3421 1 31.367130063 17.8075490321 1.32856099303
2942 1 35.5476347807 16.3714090277 3.01964522178
2944 1 35.8021924837 16.3238810785 0.20826847743
3452 1 35.4754792332 19.2312584855 3.02368180828
3453 1 34.2181891731 17.7884739916 1.49910476895
3454 1 35.7198799477 19.2133793569 0.152862973206
2974 2 38.1970778762 16.5395225337 3.40111829278
2976 2 38.5096981585 16.4542878629 0.260465819902
3485 1 36.9982977494 17.8131271467 1.67996306539
3517 1 39.6474511513 17.8515429854 1.95423350681
3484 1 38.1697121347 19.2328671534 3.25256342592
3486 1 38.5677728967 19.1575657695 0.267748252105
2494 1 40.7751973806 16.4585769641 3.49100230117
3519 1 41.1157320375 16.5268931078 0.480197958581
3007 1 42.2512956304 17.7591467502 2.0505827547
4059 1 43.5801547103 19.0949891111 3.72020076456
3516 1 41.07750813 19.3301242 3.33032298516
2527 1 41.0718760011 19.2663223019 0.626444898944
3550 1 43.2687798715 19.9760708186 1.43623263306
3042 1 45.8104392233 16.5083958673 0.433795182443
2496 2 44.625887953 17.8494152526 1.96813370143
8200 1 47.1932631869 17.8383360985 2.14064214407
8709 1 45.6379593422 19.8890059677 2.81298950337
8201 1 45.8759313465 19.1172848725 0.459691032292
8169 1 48.561997275 16.4102790992 0.360352128867
8233 1 50.0790487946 17.8119516367 1.72211115785
8742 1 48.7376804052 19.2414140639 3.29567694716
8679 1 48.6049282492 19.1713390656 0.421954723938
8202 1 51.3617586378 16.3907164209 0.179466912833
8264 1 51.5801724107 16.3826525317 3.05339933777
8265 1 52.8944439226 17.814575457 1.54540358518
8296 1 54.3974014091 16.3773939904 2.90507789792
8774 1 51.5899620157 19.2258899487 3.09484232749
8806 1 54.4078990747 19.2411775531 2.91196019138
8712 1 51.3791994541 19.2477972516 0.187703103126
8744 1 54.2349784231 19.2420166599 0.0489169529837
8234 1 54.2214438759 16.3824294921 0.0438075404649
8297 1 55.7383456266 17.8102244855 1.40008415138
8328 1 57.2446738274 16.3813617192 2.74986163108
8838 1 57.2492601553 19.2437239366 2.74862721725
8329 1 58.592559616 17.8131730114 1.24158663564
8360 1 60.1033923933 16.3871266506 2.58035802687
8361 1 61.4515376433 17.8173292945 1.07068015394
8870 1 60.1051063556 19.2468757086 2.57787811102
8391 1 64.4845218022 17.8227795353 3.7303062232
8392 1 62.9658237425 16.3918179631 2.40260542526
8393 1 64.3113421102 17.8196327691 0.892650325533
8425 1 65.8278483433 16.3937130447 2.22225623857
8902 1 62.9658269553 19.249425138 2.40138188928
8935 1 65.8264147971 19.248673021 2.22225600443
8424 1 67.3453415293 17.8211630441 3.55262781367
8426 1 67.1701839787 17.8190814867 0.712459064193
8458 1 68.6883024946 16.3931482476 2.04434498276
8968 1 68.6858079493 19.2442831992 2.04435690027
8457 1 70.2082212847 17.8183519124 3.37894875484
8489 1 73.079698241 17.8144883413 3.21627846381
8490 1 71.5480692867 16.3921074913 1.87098262865
9000 1 71.5459713426 19.2380001444 1.87042460253
8394 1 70.0272605939 17.8168675618 0.533715197178
8427 1 72.8769437777 17.8164959877 0.352966192777
8521 1 75.9469094411 17.8317119445 3.0705340641
8522 1 74.388112228 16.3979448926 1.68995402527
9032 1 74.4039913004 19.2258780372 1.69937968422
8459 1 75.7321700855 17.7999559108 0.190361610249
8553 1 78.7554415222 17.8076417539 3.0224285686
8554 1 77.2508739846 16.3774357073 1.5626258129
8586 1 80.0309988339 16.3656927118 1.40212765954
9064 1 77.2413798506 19.2086105633 1.54463813446
9096 1 80.0303518166 19.2342784386 1.35146015004
8491 1 78.5550857709 17.7925143723 0.0315531740962
8585 1 81.449744687 17.8207853959 2.76251502961
9128 1 82.7725861216 19.2421436359 1.14427901297
8555 2 83.8756613754 17.5204554781 0.0320380509595
8617 1 84.2653199566 17.9993699424 2.46342271515
8650 1 85.6689374901 16.387885304 1.15409051538
9180 1 85.8094032006 19.3073974836 0.738624620778
9127 1 86.5367518343 19.3627570227 3.57460342225
9158 2 85.8162683425 16.9879094383 3.61296935578
8649 1 88.1556419956 18.8288506956 1.4426723491
9179 2 90.5279176928 18.8384521703 2.77608308337
3609 1 2.69816656006 20.7583065381 2.55230176596
3578 1 1.39498495429 22.2491783397 1.04003105793
4119 1 2.77252146791 23.6192531876 2.5490847327
3577 1 1.21722849622 22.284212737 3.80103471614
3641 1 5.55159417185 20.7439267353 2.75356848939
3610 1 4.24194988421 22.1971703489 1.23547661731
3642 1 7.08356158737 22.1647105418 1.40716826272
4151 1 5.57633809366 23.5812137641 2.73576908241
3673 1 8.44284859704 20.7275075338 2.88391907004
3674 1 9.96264259094 22.1507435127 1.53024444642
4183 1 8.43947649215 23.56748812 2.86998575132
3675 1 8.64508101381 20.7556303213 0.103750041592
3705 1 11.2994642104 20.7135005505 3.02392001463
3707 1 11.4152865276 20.6823385409 0.136477558493
3737 1 14.1300376786 20.6993898021 3.15410664189
3739 1 14.283196082 20.6908725013 0.301252393698
3706 1 12.7807600725 22.1214362328 1.6430823928
4215 1 11.2940023909 23.565065452 3.00788901526
4217 1 11.4319807196 23.536693149 0.128308986113
4247 1 14.1303221929 23.553303335 3.14914657658
4249 1 14.2861578568 23.543760982 0.297153061892
3771 1 17.1428919238 20.6914731431 0.472643292553
3769 1 16.9781527503 20.696396923 3.31733545563
3738 1 15.6333079452 22.1218434351 1.80757413376
4281 1 17.1422157782 23.5469608638 0.468255900865
4279 1 16.9783528592 23.5533396371 3.31528088333
3803 1 19.9986633636 20.6862931842 0.650223477929
3801 1 19.8309740411 20.692049193 3.49117744715
3770 1 18.4866531102 22.1210879896 1.97929560325