#Header

5248 atoms

2 atom types

0.0 45.68 xlo xhi
0.0 36.5618393957 ylo yhi
0.0 36.5618393957 zlo zhi


Atoms

1 1 1.4275 16.274477292 18.0579816528
2 1 1.4275 16.7203533822 14.045096841
3 1 1.4275 14.4909729312 15.8286012018
4 1 1.4275 12.2615924803 17.6121055626
5 1 1.4275 17.1662294724 10.0322120293
6 1 1.4275 14.9368490214 11.8157163901
7 1 1.4275 12.7074685705 13.5992207508
8 1 1.4275 10.4780881195 15.3827251116
9 1 1.4275 8.24870766855 17.1662294724
10 1 1.4275 17.6121055626 6.0193272176
11 1 1.4275 15.3827251116 7.80283157836
12 1 1.4275 13.1533446607 9.58633593914
13 1 1.4275 10.9239642097 11.3698402999
14 1 1.4275 8.69458375875 13.1533446607
15 1 1.4275 6.46520330777 14.9368490214
16 1 1.4275 4.23582285682 16.7203533822
17 1 1.4275 18.0579816528 2.00644240586
18 1 1.4275 15.8286012018 3.78994676662
19 1 1.4275 13.5992207508 5.57345112741
20 1 1.4275 11.3698402999 7.35695548816
21 1 1.4275 9.14045984895 9.14045984895
22 1 1.4275 6.91107939797 10.9239642097
23 1 1.4275 4.68169894701 12.7074685705
24 1 1.4275 2.45231849605 14.4909729312
25 1 1.4275 0.222938045096 16.274477292
26 1 1.4275 14.045096841 1.56056631567
27 1 1.4275 11.8157163901 3.34407067643
28 1 1.4275 9.58633593914 5.12757503721
29 1 1.4275 7.35695548816 6.91107939797
30 1 1.4275 5.12757503721 8.69458375875
31 1 1.4275 2.89819458626 10.4780881195
32 1 1.4275 0.668814135288 12.2615924803
33 1 1.4275 10.0322120293 1.11469022548
34 1 1.4275 7.80283157836 2.89819458626
35 1 1.4275 5.57345112741 4.68169894701
36 1 1.4275 3.34407067643 6.46520330777
37 1 1.4275 1.11469022548 8.24870766855
38 1 1.4275 6.0193272176 0.668814135288
39 1 1.4275 3.78994676662 2.45231849605
40 1 1.4275 1.56056631567 4.23582285682
41 1 1.4275 2.00644240586 0.222938045096
42 1 0.0 16.4974153371 16.0515392469
43 1 0.0 14.2680348862 17.8350436077
44 1 0.0 16.9432914273 12.0386544352
45 1 0.0 14.7139109763 13.822158796
46 1 0.0 12.4845305254 15.6056631567
47 1 0.0 10.2551500744 17.3891675175
48 1 0.0 17.3891675175 8.02576962344
49 1 0.0 15.1597870665 9.80927398423
50 1 0.0 12.9304066156 11.592778345
51 1 0.0 10.7010261646 13.3762827058
52 1 0.0 8.47164571364 15.1597870665
53 1 0.0 6.24226526269 16.9432914273
54 1 0.0 17.8350436077 4.01288481173
55 1 0.0 15.6056631567 5.79638917249
56 1 0.0 13.3762827058 7.57989353327
57 1 0.0 11.1469022548 9.36339789403
58 1 0.0 8.91752180383 11.1469022548
59 1 0.0 6.68814135288 12.9304066156
60 1 0.0 4.45876090193 14.7139109763
61 1 0.0 2.22938045096 16.4974153371
62 1 0.0 16.0515392469 1.78350436077
63 1 0.0 13.822158796 3.56700872154
64 1 0.0 11.592778345 5.35051308229
65 1 0.0 9.36339789403 7.13401744308
66 1 0.0 7.13401744308 8.91752180383
67 1 0.0 4.9046369921 10.7010261646
68 1 0.0 2.67525654115 12.4845305254
69 1 0.0 0.445876090193 14.2680348862
70 1 0.0 12.0386544352 1.33762827058
71 1 0.0 9.80927398423 3.12113263134
72 1 0.0 7.57989353327 4.9046369921
73 1 0.0 5.35051308229 6.68814135288
74 1 0.0 3.12113263134 8.47164571364
75 1 0.0 0.891752180383 10.2551500744
76 1 0.0 8.02576962344 0.891752180383
77 1 0.0 5.79638917249 2.67525654115
78 1 0.0 3.56700872154 4.45876090193
79 1 0.0 1.33762827058 6.24226526269
80 1 0.0 4.01288481173 0.445876090193
81 1 0.0 1.78350436077 2.22938045096
82 1 0.0 0.0 0.0
83 1 1.4275 16.274477292 36.3389013506
84 1 1.4275 16.7203533822 32.3260165389
85 1 1.4275 14.4909729312 34.1095208997
86 1 1.4275 12.2615924803 35.8930252604
87 1 1.4275 17.1662294724 28.3131317272
88 1 1.4275 14.9368490214 30.096636088
89 1 1.4275 12.7074685705 31.8801404487
90 1 1.4275 10.4780881195 33.6636448095
91 1 1.4275 8.24870766855 35.4471491702
92 1 1.4275 17.6121055626 24.3002469155
93 1 1.4275 15.3827251116 26.0837512762
94 1 1.4275 13.1533446607 27.867255637
95 1 1.4275 10.9239642097 29.6507599978
96 1 1.4275 8.69458375875 31.4342643585
97 1 1.4275 6.46520330777 33.2177687193
98 1 1.4275 4.23582285682 35.0012730801
99 1 1.4275 18.0579816528 20.2873621037
100 1 1.4275 15.8286012018 22.0708664645
101 1 1.4275 13.5992207508 23.8543708253
102 1 1.4275 11.3698402999 25.637875186
103 1 1.4275 9.14045984895 27.4213795468
104 1 1.4275 6.91107939797 29.2048839076
105 1 1.4275 4.68169894701 30.9883882683
106 1 1.4275 2.45231849605 32.7718926291
107 1 1.4275 0.222938045096 34.5553969899
108 1 1.4275 14.045096841 19.8414860135
109 1 1.4275 11.8157163901 21.6249903743
110 1 1.4275 9.58633593914 23.4084947351
111 1 1.4275 7.35695548816 25.1919990958
112 1 1.4275 5.12757503721 26.9755034566
113 1 1.4275 2.89819458626 28.7590078174
114 1 1.4275 0.668814135288 30.5425121782
115 1 1.4275 10.0322120293 19.3956099233
116 1 1.4275 7.80283157836 21.1791142841
117 1 1.4275 5.57345112741 22.9626186449
118 1 1.4275 3.34407067643 24.7461230056
119 1 1.4275 1.11469022548 26.5296273664
120 1 1.4275 6.0193272176 18.9497338332
121 1 1.4275 3.78994676662 20.7332381939
122 1 1.4275 1.56056631567 22.5167425547
123 1 1.4275 2.00644240586 18.503857743
124 1 0.0 16.4974153371 34.3324589448
125 1 0.0 14.2680348862 36.1159633055
126 1 0.0 16.9432914273 30.319574133
127 1 0.0 14.7139109763 32.1030784938
128 1 0.0 12.4845305254 33.8865828546
129 1 0.0 10.2551500744 35.6700872154
130 1 0.0 17.3891675175 26.3066893213
131 1 0.0 15.1597870665 28.0901936821
132 1 0.0 12.9304066156 29.8736980428
133 1 0.0 10.7010261646 31.6572024036
134 1 0.0 8.47164571364 33.4407067644
135 1 0.0 6.24226526269 35.2242111252
136 1 0.0 17.8350436077 22.2938045096
137 1 0.0 15.6056631567 24.0773088704
138 1 0.0 13.3762827058 25.8608132311
139 1 0.0 11.1469022548 27.6443175919
140 1 0.0 8.91752180383 29.4278219527
141 1 0.0 6.68814135288 31.2113263134
142 1 0.0 4.45876090193 32.9948306742
143 1 0.0 2.22938045096 34.778335035
144 1 0.0 16.0515392469 20.0644240586
145 1 0.0 13.822158796 21.8479284194
146 1 0.0 11.592778345 23.6314327802
147 1 0.0 9.36339789403 25.4149371409
148 1 0.0 7.13401744308 27.1984415017
149 1 0.0 4.9046369921 28.9819458625
150 1 0.0 2.67525654115 30.7654502232
151 1 0.0 0.445876090193 32.548954584
152 1 0.0 12.0386544352 19.6185479684
153 1 0.0 9.80927398423 21.4020523292
154 1 0.0 7.57989353327 23.18555669
155 1 0.0 5.35051308229 24.9690610507
156 1 0.0 3.12113263134 26.7525654115
157 1 0.0 0.891752180383 28.5360697723
158 1 0.0 8.02576962344 19.1726718782
159 1 0.0 5.79638917249 20.956176239
160 1 0.0 3.56700872154 22.7396805998
161 1 0.0 1.33762827058 24.5231849605
162 1 0.0 4.01288481173 18.7267957881
163 1 0.0 1.78350436077 20.5103001488
164 1 0.0 0.0 18.2809196979
165 1 1.4275 34.5553969899 18.0579816528
166 1 1.4275 35.0012730801 14.045096841
167 1 1.4275 32.7718926291 15.8286012018
168 1 1.4275 30.5425121782 17.6121055626
169 1 1.4275 35.4471491702 10.0322120293
170 1 1.4275 33.2177687193 11.8157163901
171 1 1.4275 30.9883882683 13.5992207508
172 1 1.4275 28.7590078174 15.3827251116
173 1 1.4275 26.5296273664 17.1662294724
174 1 1.4275 35.8930252604 6.0193272176
175 1 1.4275 33.6636448095 7.80283157836
176 1 1.4275 31.4342643585 9.58633593914
177 1 1.4275 29.2048839076 11.3698402999
178 1 1.4275 26.9755034566 13.1533446607
179 1 1.4275 24.7461230056 14.9368490214
180 1 1.4275 22.5167425547 16.7203533822
181 1 1.4275 36.3389013506 2.00644240586
182 1 1.4275 34.1095208997 3.78994676662
183 1 1.4275 31.8801404487 5.57345112741
184 1 1.4275 29.6507599978 7.35695548816
185 1 1.4275 27.4213795468 9.14045984895
186 1 1.4275 25.1919990958 10.9239642097
187 1 1.4275 22.9626186449 12.7074685705
188 1 1.4275 20.7332381939 14.4909729312
189 1 1.4275 18.503857743 16.274477292
190 1 1.4275 32.3260165389 1.56056631567
191 1 1.4275 30.096636088 3.34407067643
192 1 1.4275 27.867255637 5.12757503721
193 1 1.4275 25.637875186 6.91107939797
194 1 1.4275 23.4084947351 8.69458375875
195 1 1.4275 21.1791142841 10.4780881195
196 1 1.4275 18.9497338332 12.2615924803
197 1 1.4275 28.3131317272 1.11469022548
198 1 1.4275 26.0837512762 2.89819458626
199 1 1.4275 23.8543708253 4.68169894701
200 1 1.4275 21.6249903743 6.46520330777
201 1 1.4275 19.3956099233 8.24870766855
202 1 1.4275 24.3002469155 0.668814135288
203 1 1.4275 22.0708664645 2.45231849605
204 1 1.4275 19.8414860135 4.23582285682
205 1 1.4275 20.2873621037 0.222938045096
206 1 0.0 34.778335035 16.0515392469
207 1 0.0 32.548954584 17.8350436077
208 1 0.0 35.2242111252 12.0386544352
209 1 0.0 32.9948306742 13.822158796
210 1 0.0 30.7654502232 15.6056631567
211 1 0.0 28.5360697723 17.3891675175
212 1 0.0 35.6700872154 8.02576962344
213 1 0.0 33.4407067644 9.80927398423
214 1 0.0 31.2113263134 11.592778345
215 1 0.0 28.9819458625 13.3762827058
216 1 0.0 26.7525654115 15.1597870665
217 1 0.0 24.5231849605 16.9432914273
218 1 0.0 36.1159633055 4.01288481173
219 1 0.0 33.8865828546 5.79638917249
220 1 0.0 31.6572024036 7.57989353327
221 1 0.0 29.4278219527 9.36339789403
222 1 0.0 27.1984415017 11.1469022548
223 1 0.0 24.9690610507 12.9304066156
224 1 0.0 22.7396805998 14.7139109763
225 1 0.0 20.5103001488 16.4974153371
226 1 0.0 34.3324589448 1.78350436077
227 1 0.0 32.1030784938 3.56700872154
228 1 0.0 29.8736980428 5.35051308229
229 1 0.0 27.6443175919 7.13401744308
230 1 0.0 25.4149371409 8.91752180383
231 1 0.0 23.18555669 10.7010261646
232 1 0.0 20.956176239 12.4845305254
233 1 0.0 18.7267957881 14.2680348862
234 1 0.0 30.319574133 1.33762827058
235 1 0.0 28.0901936821 3.12113263134
236 1 0.0 25.8608132311 4.9046369921
237 1 0.0 23.6314327802 6.68814135288
238 1 0.0 21.4020523292 8.47164571364
239 1 0.0 19.1726718782 10.2551500744
240 1 0.0 26.3066893213 0.891752180383
241 1 0.0 24.0773088704 2.67525654115
242 1 0.0 21.8479284194 4.45876090193
243 1 0.0 19.6185479684 6.24226526269
244 1 0.0 22.2938045096 0.445876090193
245 1 0.0 20.0644240586 2.22938045096
246 1 0.0 18.2809196979 0.0
247 1 1.4275 34.5553969899 36.3389013506
248 1 1.4275 35.0012730801 32.3260165389
249 1 1.4275 32.7718926291 34.1095208997
250 1 1.4275 30.5425121782 35.8930252604
251 1 1.4275 35.4471491702 28.3131317272
252 1 1.4275 33.2177687193 30.096636088
253 1 1.4275 30.9883882683 31.8801404487
254 1 1.4275 28.7590078174 33.6636448095
255 1 1.4275 26.5296273664 35.4471491702
256 1 1.4275 35.8930252604 24.3002469155
257 1 1.4275 33.6636448095 26.0837512762
258 1 1.4275 31.4342643585 27.867255637
259 1 1.4275 29.2048839076 29.6507599978
260 1 1.4275 26.9755034566 31.4342643585
261 1 1.4275 24.7461230056 33.2177687193
262 1 1.4275 22.5167425547 35.0012730801
263 1 1.4275 36.3389013506 20.2873621037
264 1 1.4275 34.1095208997 22.0708664645
265 1 1.4275 31.8801404487 23.8543708253
266 1 1.4275 29.6507599978 25.637875186
267 1 1.4275 27.4213795468 27.4213795468
268 1 1.4275 25.1919990958 29.2048839076
269 1 1.4275 22.9626186449 30.9883882683
270 1 1.4275 20.7332381939 32.7718926291
271 1 1.4275 18.503857743 34.5553969899
272 1 1.4275 32.3260165389 19.8414860135
273 1 1.4275 30.096636088 21.6249903743
274 1 1.4275 27.867255637 23.4084947351
275 1 1.4275 25.637875186 25.1919990958
276 1 1.4275 23.4084947351 26.9755034566
277 1 1.4275 21.1791142841 28.7590078174
278 1 1.4275 18.9497338332 30.5425121782
279 1 1.4275 28.3131317272 19.3956099233
280 1 1.4275 26.0837512762 21.1791142841
281 1 1.4275 23.8543708253 22.9626186449
282 1 1.4275 21.6249903743 24.7461230056
283 1 1.4275 19.3956099233 26.5296273664
284 1 1.4275 24.3002469155 18.9497338332
285 1 1.4275 22.0708664645 20.7332381939
286 1 1.4275 19.8414860135 22.5167425547
287 1 1.4275 20.2873621037 18.503857743
288 1 0.0 34.778335035 34.3324589448
289 1 0.0 32.548954584 36.1159633055
290 1 0.0 35.2242111252 30.319574133
291 1 0.0 32.9948306742 32.1030784938
292 1 0.0 30.7654502232 33.8865828546
293 1 0.0 28.5360697723 35.6700872154
294 1 0.0 35.6700872154 26.3066893213
295 1 0.0 33.4407067644 28.0901936821
296 1 0.0 31.2113263134 29.8736980428
297 1 0.0 28.9819458625 31.6572024036
298 1 0.0 26.7525654115 33.4407067644
299 1 0.0 24.5231849605 35.2242111252
300 1 0.0 36.1159633055 22.2938045096
301 1 0.0 33.8865828546 24.0773088704
302 1 0.0 31.6572024036 25.8608132311
303 1 0.0 29.4278219527 27.6443175919
304 1 0.0 27.1984415017 29.4278219527
305 1 0.0 24.9690610507 31.2113263134
306 1 0.0 22.7396805998 32.9948306742
307 1 0.0 20.5103001488 34.778335035
308 1 0.0 34.3324589448 20.0644240586
309 1 0.0 32.1030784938 21.8479284194
310 1 0.0 29.8736980428 23.6314327802
311 1 0.0 27.6443175919 25.4149371409
312 1 0.0 25.4149371409 27.1984415017
313 1 0.0 23.18555669 28.9819458625
314 1 0.0 20.956176239 30.7654502232
315 1 0.0 18.7267957881 32.548954584
316 1 0.0 30.319574133 19.6185479684
317 1 0.0 28.0901936821 21.4020523292
318 1 0.0 25.8608132311 23.18555669
319 1 0.0 23.6314327802 24.9690610507
320 1 0.0 21.4020523292 26.7525654115
321 1 0.0 19.1726718782 28.5360697723
322 1 0.0 26.3066893213 19.1726718782
323 1 0.0 24.0773088704 20.956176239
324 1 0.0 21.8479284194 22.7396805998
325 1 0.0 19.6185479684 24.5231849605
326 1 0.0 22.2938045096 18.7267957881
327 1 0.0 20.0644240586 20.5103001488
328 1 0.0 18.2809196979 18.2809196979
329 1 4.2825 16.274477292 18.0579816528
330 1 4.2825 16.7203533822 14.045096841
331 1 4.2825 14.4909729312 15.8286012018
332 1 4.2825 12.2615924803 17.6121055626
333 1 4.2825 17.1662294724 10.0322120293
334 1 4.2825 14.9368490214 11.8157163901
335 1 4.2825 12.7074685705 13.5992207508
336 1 4.2825 10.4780881195 15.3827251116
337 1 4.2825 8.24870766855 17.1662294724
338 1 4.2825 17.6121055626 6.0193272176
339 1 4.2825 15.3827251116 7.80283157836
340 1 4.2825 13.1533446607 9.58633593914
341 1 4.2825 10.9239642097 11.3698402999
342 1 4.2825 8.69458375875 13.1533446607
343 1 4.2825 6.46520330777 14.9368490214
344 1 4.2825 4.23582285682 16.7203533822
345 1 4.2825 18.0579816528 2.00644240586
346 1 4.2825 15.8286012018 3.78994676662
347 1 4.2825 13.5992207508 5.57345112741
348 1 4.2825 11.3698402999 7.35695548816
349 1 4.2825 9.14045984895 9.14045984895
350 1 4.2825 6.91107939797 10.9239642097
351 1 4.2825 4.68169894701 12.7074685705
352 1 4.2825 2.45231849605 14.4909729312
353 1 4.2825 0.222938045096 16.274477292
354 1 4.2825 14.045096841 1.56056631567
355 1 4.2825 11.8157163901 3.34407067643
356 1 4.2825 9.58633593914 5.12757503721
357 1 4.2825 7.35695548816 6.91107939797
358 1 4.2825 5.12757503721 8.69458375875
359 1 4.2825 2.89819458626 10.4780881195
360 1 4.2825 0.668814135288 12.2615924803
361 1 4.2825 10.0322120293 1.11469022548
362 1 4.2825 7.80283157836 2.89819458626
363 1 4.2825 5.57345112741 4.68169894701
364 1 4.2825 3.34407067643 6.46520330777
365 1 4.2825 1.11469022548 8.24870766855
366 1 4.2825 6.0193272176 0.668814135288
367 1 4.2825 3.78994676662 2.45231849605
368 1 4.2825 1.56056631567 4.23582285682
369 1 4.2825 2.00644240586 0.222938045096
370 1 2.855 16.4974153371 16.0515392469
371 1 2.855 14.2680348862 17.8350436077
372 1 2.855 16.9432914273 12.0386544352
373 1 2.855 14.7139109763 13.822158796
374 1 2.855 12.4845305254 15.6056631567
375 1 2.855 10.2551500744 17.3891675175
376 1 2.855 17.3891675175 8.02576962344
377 1 2.855 15.1597870665 9.80927398423
378 1 2.855 12.9304066156 11.592778345
379 1 2.855 10.7010261646 13.3762827058
380 1 2.855 8.47164571364 15.1597870665
381 1 2.855 6.24226526269 16.9432914273
382 1 2.855 17.8350436077 4.01288481173
383 1 2.855 15.6056631567 5.79638917249
384 1 2.855 13.3762827058 7.57989353327
385 1 2.855 11.1469022548 9.36339789403
386 1 2.855 8.91752180383 11.1469022548
387 1 2.855 6.68814135288 12.9304066156
388 1 2.855 4.45876090193 14.7139109763
389 1 2.855 2.22938045096 16.4974153371
390 1 2.855 16.0515392469 1.78350436077
391 1 2.855 13.822158796 3.56700872154
392 1 2.855 11.592778345 5.35051308229
393 1 2.855 9.36339789403 7.13401744308
394 1 2.855 7.13401744308 8.91752180383
395 1 2.855 4.9046369921 10.7010261646
396 1 2.855 2.67525654115 12.4845305254
397 1 2.855 0.445876090193 14.2680348862
398 1 2.855 12.0386544352 1.33762827058
399 1 2.855 9.80927398423 3.12113263134
400 1 2.855 7.57989353327 4.9046369921
401 1 2.855 5.35051308229 6.68814135288
402 1 2.855 3.12113263134 8.47164571364
403 1 2.855 0.891752180383 10.2551500744
404 1 2.855 8.02576962344 0.891752180383
405 1 2.855 5.79638917249 2.67525654115
406 1 2.855 3.56700872154 4.45876090193
407 1 2.855 1.33762827058 6.24226526269
408 1 2.855 4.01288481173 0.445876090193
409 1 2.855 1.78350436077 2.22938045096
410 1 2.855 0.0 0.0
411 1 4.2825 16.274477292 36.3389013506
412 1 4.2825 16.7203533822 32.3260165389
413 1 4.2825 14.4909729312 34.1095208997
414 1 4.2825 12.2615924803 35.8930252604
415 1 4.2825 17.1662294724 28.3131317272
416 1 4.2825 14.9368490214 30.096636088
417 1 4.2825 12.7074685705 31.8801404487
418 1 4.2825 10.4780881195 33.6636448095
419 1 4.2825 8.24870766855 35.4471491702
420 1 4.2825 17.6121055626 24.3002469155
421 1 4.2825 15.3827251116 26.0837512762
422 1 4.2825 13.1533446607 27.867255637
423 1 4.2825 10.9239642097 29.6507599978
424 1 4.2825 8.69458375875 31.4342643585
425 1 4.2825 6.46520330777 33.2177687193
426 1 4.2825 4.23582285682 35.0012730801
427 1 4.2825 18.0579816528 20.2873621037
428 1 4.2825 15.8286012018 22.0708664645
429 1 4.2825 13.5992207508 23.8543708253
430 1 4.2825 11.3698402999 25.637875186
431 1 4.2825 9.14045984895 27.4213795468
432 1 4.2825 6.91107939797 29.2048839076
433 1 4.2825 4.68169894701 30.9883882683
434 1 4.2825 2.45231849605 32.7718926291
435 1 4.2825 0.222938045096 34.5553969899
436 1 4.2825 14.045096841 19.8414860135
437 1 4.2825 11.8157163901 21.6249903743
438 1 4.2825 9.58633593914 23.4084947351
439 1 4.2825 7.35695548816 25.1919990958
440 1 4.2825 5.12757503721 26.9755034566
441 1 4.2825 2.89819458626 28.7590078174
442 1 4.2825 0.668814135288 30.5425121782
443 1 4.2825 10.0322120293 19.3956099233
444 1 4.2825 7.80283157836 21.1791142841
445 1 4.2825 5.57345112741 22.9626186449
446 1 4.2825 3.34407067643 24.7461230056
447 1 4.2825 1.11469022548 26.5296273664
448 1 4.2825 6.0193272176 18.9497338332
449 1 4.2825 3.78994676662 20.7332381939
450 1 4.2825 1.56056631567 22.5167425547
451 1 4.2825 2.00644240586 18.503857743
452 1 2.855 16.4974153371 34.3324589448
453 1 2.855 14.2680348862 36.1159633055
454 1 2.855 16.9432914273 30.319574133
455 1 2.855 14.7139109763 32.1030784938
456 1 2.855 12.4845305254 33.8865828546
457 1 2.855 10.2551500744 35.6700872154
458 1 2.855 17.3891675175 26.3066893213
459 1 2.855 15.1597870665 28.0901936821
460 1 2.855 12.9304066156 29.8736980428
461 1 2.855 10.7010261646 31.6572024036
462 1 2.855 8.47164571364 33.4407067644
463 1 2.855 6.24226526269 35.2242111252
464 1 2.855 17.8350436077 22.2938045096
465 1 2.855 15.6056631567 24.0773088704
466 1 2.855 13.3762827058 25.8608132311
467 1 2.855 11.1469022548 27.6443175919
468 1 2.855 8.91752180383 29.4278219527
469 1 2.855 6.68814135288 31.2113263134
470 1 2.855 4.45876090193 32.9948306742
471 1 2.855 2.22938045096 34.778335035
472 1 2.855 16.0515392469 20.0644240586
473 1 2.855 13.822158796 21.8479284194
474 1 2.855 11.592778345 23.6314327802
475 1 2.855 9.36339789403 25.4149371409
476 1 2.855 7.13401744308 27.1984415017
477 1 2.855 4.9046369921 28.9819458625
478 1 2.855 2.67525654115 30.7654502232
479 1 2.855 0.445876090193 32.548954584
480 1 2.855 12.0386544352 19.6185479684
481 1 2.855 9.80927398423 21.4020523292
482 1 2.855 7.57989353327 23.18555669
483 1 2.855 5.35051308229 24.9690610507
484 1 2.855 3.12113263134 26.7525654115
485 1 2.855 0.891752180383 28.5360697723
486 1 2.855 8.02576962344 19.1726718782
487 1 2.855 5.79638917249 20.956176239
488 1 2.855 3.56700872154 22.7396805998
489 1 2.855 1.33762827058 24.5231849605
490 1 2.855 4.01288481173 18.7267957881
491 1 2.855 1.78350436077 20.5103001488
492 1 2.855 0.0 18.2809196979
493 1 4.2825 34.5553969899 18.0579816528
494 1 4.2825 35.0012730801 14.045096841
495 1 4.2825 32.7718926291 15.8286012018
496 1 4.2825 30.5425121782 17.6121055626
497 1 4.2825 35.4471491702 10.0322120293
498 1 4.2825 33.2177687193 11.8157163901
499 1 4.2825 30.9883882683 13.5992207508
500 1 4.2825 28.7590078174 15.3827251116
501 1 4.2825 26.5296273664 17.1662294724
502 1 4.2825 35.8930252604 6.0193272176
503 1 4.2825 33.6636448095 7.80283157836
504 1 4.2825 31.4342643585 9.58633593914
505 1 4.2825 29.2048839076 11.3698402999
506 1 4.2825 26.9755034566 13.1533446607
507 1 4.2825 24.7461230056 14.9368490214
508 1 4.2825 22.5167425547 16.7203533822
509 1 4.2825 36.3389013506 2.00644240586
510 1 4.2825 34.1095208997 3.78994676662
511 1 4.2825 31.8801404487 5.57345112741
512 1 4.2825 29.6507599978 7.35695548816
513 1 4.2825 27.4213795468 9.14045984895
514 1 4.2825 25.1919990958 10.9239642097
515 1 4.2825 22.9626186449 12.7074685705
516 1 4.2825 20.7332381939 14.4909729312
517 1 4.2825 18.503857743 16.274477292
518 1 4.2825 32.3260165389 1.56056631567
519 1 4.2825 30.096636088 3.34407067643
520 1 4.2825 27.867255637 5.12757503721
521 1 4.2825 25.637875186 6.91107939797
522 1 4.2825 23.4084947351 8.69458375875
523 1 4.2825 21.1791142841 10.4780881195
524 1 4.2825 18.9497338332 12.2615924803
525 1 4.2825 28.3131317272 1.11469022548
526 1 4.2825 26.0837512762 2.89819458626
527 1 4.2825 23.8543708253 4.68169894701
528 1 4.2825 21.6249903743 6.46520330777
529 1 4.2825 19.3956099233 8.24870766855
530 1 4.2825 24.3002469155 0.668814135288
531 1 4.2825 22.0708664645 2.45231849605
532 1 4.2825 19.8414860135 4.23582285682
533 1 4.2825 20.2873621037 0.222938045096
534 1 2.855 34.778335035 16.0515392469
535 1 2.855 32.548954584 17.8350436077
536 1 2.855 35.2242111252 12.0386544352
537 1 2.855 32.9948306742 13.822158796
538 1 2.855 30.7654502232 15.6056631567
539 1 2.855 28.5360697723 17.3891675175
540 1 2.855 35.6700872154 8.02576962344
541 1 2.855 33.4407067644 9.80927398423
542 1 2.855 31.2113263134 11.592778345
543 1 2.855 28.9819458625 13.3762827058
544 1 2.855 26.7525654115 15.1597870665
545 1 2.855 24.5231849605 16.9432914273
546 1 2.855 36.1159633055 4.01288481173
547 1 2.855 33.8865828546 5.79638917249
548 1 2.855 31.6572024036 7.57989353327
549 1 2.855 29.4278219527 9.36339789403
550 1 2.855 27.1984415017 11.1469022548
551 1 2.855 24.9690610507 12.9304066156
552 1 2.855 22.7396805998 14.7139109763
553 1 2.855 20.5103001488 16.4974153371
554 1 2.855 34.3324589448 1.78350436077
555 1 2.855 32.1030784938 3.56700872154
556 1 2.855 29.8736980428 5.35051308229
557 1 2.855 27.6443175919 7.13401744308
558 1 2.855 25.4149371409 8.91752180383
559 1 2.855 23.18555669 10.7010261646
560 1 2.855 20.956176239 12.4845305254
561 1 2.855 18.7267957881 14.2680348862
562 1 2.855 30.319574133 1.33762827058
563 1 2.855 28.0901936821 3.12113263134
564 1 2.855 25.8608132311 4.9046369921
565 1 2.855 23.6314327802 6.68814135288
566 1 2.855 21.4020523292 8.47164571364
567 1 2.855 19.1726718782 10.2551500744
568 1 2.855 26.3066893213 0.891752180383
569 1 2.855 24.0773088704 2.67525654115
570 1 2.855 21.8479284194 4.45876090193
571 1 2.855 19.6185479684 6.24226526269
572 1 2.855 22.2938045096 0.445876090193
573 1 2.855 20.0644240586 2.22938045096
574 1 2.855 18.2809196979 0.0
575 1 4.2825 34.5553969899 36.3389013506
576 1 4.2825 35.0012730801 32.3260165389
577 1 4.2825 32.7718926291 34.1095208997
578 1 4.2825 30.5425121782 35.8930252604
579 1 4.2825 35.4471491702 28.3131317272
580 1 4.2825 33.2177687193 30.096636088
581 1 4.2825 30.9883882683 31.8801404487
582 1 4.2825 28.7590078174 33.6636448095
583 1 4.2825 26.5296273664 35.4471491702
584 1 4.2825 35.8930252604 24.3002469155
585 1 4.2825 33.6636448095 26.0837512762
586 1 4.2825 31.4342643585 27.867255637
587 1 4.2825 29.2048839076 29.6507599978
588 1 4.2825 26.9755034566 31.4342643585
589 1 4.2825 24.7461230056 33.2177687193
590 1 4.2825 22.5167425547 35.0012730801
591 1 4.2825 36.3389013506 20.2873621037
592 1 4.2825 34.1095208997 22.0708664645
593 1 4.2825 31.8801404487 23.8543708253
594 1 4.2825 29.6507599978 25.637875186
595 1 4.2825 27.4213795468 27.4213795468
596 1 4.2825 25.1919990958 29.2048839076
597 1 4.2825 22.9626186449 30.9883882683
598 1 4.2825 20.7332381939 32.7718926291
599 1 4.2825 18.503857743 34.5553969899
600 1 4.2825 32.3260165389 19.8414860135
601 1 4.2825 30.096636088 21.6249903743
602 1 4.2825 27.867255637 23.4084947351
603 1 4.2825 25.637875186 25.1919990958
604 1 4.2825 23.4084947351 26.9755034566
605 1 4.2825 21.1791142841 28.7590078174
606 1 4.2825 18.9497338332 30.5425121782
607 1 4.2825 28.3131317272 19.3956099233
608 1 4.2825 26.0837512762 21.1791142841
609 1 4.2825 23.8543708253 22.9626186449
610 1 4.2825 21.6249903743 24.7461230056
611 1 4.2825 19.3956099233 26.5296273664
612 1 4.2825 24.3002469155 18.9497338332
613 1 4.2825 22.0708664645 20.7332381939
614 1 4.2825 19.8414860135 22.5167425547
615 1 4.2825 20.2873621037 18.503857743
616 1 2.855 34.778335035 34.3324589448
617 1 2.855 32.548954584 36.1159633055
618 1 2.855 35.2242111252 30.319574133
619 1 2.855 32.9948306742 32.1030784938
620 1 2.855 30.7654502232 33.8865828546
621 1 2.855 28.5360697723 35.6700872154
622 1 2.855 35.6700872154 26.3066893213
623 1 2.855 33.4407067644 28.0901936821
624 1 2.855 31.2113263134 29.8736980428
625 1 2.855 28.9819458625 31.6572024036
626 1 2.855 26.7525654115 33.4407067644
627 1 2.855 24.5231849605 35.2242111252
628 1 2.855 36.1159633055 22.2938045096
629 1 2.855 33.8865828546 24.0773088704
630 1 2.855 31.6572024036 25.8608132311
631 1 2.855 29.4278219527 27.6443175919
632 1 2.855 27.1984415017 29.4278219527
633 1 2.855 24.9690610507 31.2113263134
634 1 2.855 22.7396805998 32.9948306742
635 1 2.855 20.5103001488 34.778335035
636 1 2.855 34.3324589448 20.0644240586
637 1 2.855 32.1030784938 21.8479284194
638 1 2.855 29.8736980428 23.6314327802
639 1 2.855 27.6443175919 25.4149371409
640 1 2.855 25.4149371409 27.1984415017
641 1 2.855 23.18555669 28.9819458625
642 1 2.855 20.956176239 30.7654502232
643 1 2.855 18.7267957881 32.548954584
644 1 2.855 30.319574133 19.6185479684
645 1 2.855 28.0901936821 21.4020523292
646 1 2.855 25.8608132311 23.18555669
647 1 2.855 23.6314327802 24.9690610507
648 1 2.855 21.4020523292 26.7525654115
649 1 2.855 19.1726718782 28.5360697723
650 1 2.855 26.3066893213 19.1726718782
651 1 2.855 24.0773088704 20.956176239
652 1 2.855 21.8479284194 22.7396805998
653 1 2.855 19.6185479684 24.5231849605
654 1 2.855 22.2938045096 18.7267957881
655 1 2.855 20.0644240586 20.5103001488
656 1 2.855 18.2809196979 18.2809196979
657 1 7.1375 16.274477292 18.0579816528
658 1 7.1375 16.7203533822 14.045096841
659 1 7.1375 14.4909729312 15.8286012018
660 1 7.1375 12.2615924803 17.6121055626
661 1 7.1375 17.1662294724 10.0322120293
662 1 7.1375 14.9368490214 11.8157163901
663 1 7.1375 12.7074685705 13.5992207508
664 1 7.1375 10.4780881195 15.3827251116
665 1 7.1375 8.24870766855 17.1662294724
666 1 7.1375 17.6121055626 6.0193272176
667 1 7.1375 15.3827251116 7.80283157836
668 1 7.1375 13.1533446607 9.58633593914
669 1 7.1375 10.9239642097 11.3698402999
670 1 7.1375 8.69458375875 13.1533446607
671 1 7.1375 6.46520330777 14.9368490214
672 1 7.1375 4.23582285682 16.7203533822
673 1 7.1375 18.0579816528 2.00644240586
674 1 7.1375 15.8286012018 3.78994676662
675 1 7.1375 13.5992207508 5.57345112741
676 1 7.1375 11.3698402999 7.35695548816
677 1 7.1375 9.14045984895 9.14045984895
678 1 7.1375 6.91107939797 10.9239642097
679 1 7.1375 4.68169894701 12.7074685705
680 1 7.1375 2.45231849605 14.4909729312
681 1 7.1375 0.222938045096 16.274477292
682 1 7.1375 14.045096841 1.56056631567
683 1 7.1375 11.8157163901 3.34407067643
684 1 7.1375 9.58633593914 5.12757503721
685 1 7.1375 7.35695548816 6.91107939797
686 1 7.1375 5.12757503721 8.69458375875
687 1 7.1375 2.89819458626 10.4780881195
688 1 7.1375 0.668814135288 12.2615924803
689 1 7.1375 10.0322120293 1.11469022548
690 1 7.1375 7.80283157836 2.89819458626
691 1 7.1375 5.57345112741 4.68169894701
692 1 7.1375 3.34407067643 6.46520330777
693 1 7.1375 1.11469022548 8.24870766855
694 1 7.1375 6.0193272176 0.668814135288
695 1 7.1375 3.78994676662 2.45231849605
696 1 7.1375 1.56056631567 4.23582285682
697 1 7.1375 2.00644240586 0.222938045096
698 1 5.71 16.4974153371 16.0515392469
699 1 5.71 14.2680348862 17.8350436077
700 1 5.71 16.9432914273 12.0386544352
701 1 5.71 14.7139109763 13.822158796
702 1 5.71 12.4845305254 15.6056631567
703 1 5.71 10.2551500744 17.3891675175
704 1 5.71 17.3891675175 8.02576962344
705 1 5.71 15.1597870665 9.80927398423
706 1 5.71 12.9304066156 11.592778345
707 1 5.71 10.7010261646 13.3762827058
708 1 5.71 8.47164571364 15.1597870665
709 1 5.71 6.24226526269 16.9432914273
710 1 5.71 17.8350436077 4.01288481173
711 1 5.71 15.6056631567 5.79638917249
712 1 5.71 13.3762827058 7.57989353327
713 1 5.71 11.1469022548 9.36339789403
714 1 5.71 8.91752180383 11.1469022548
715 1 5.71 6.68814135288 12.9304066156
716 1 5.71 4.45876090193 14.7139109763
717 1 5.71 2.22938045096 16.4974153371
718 1 5.71 16.0515392469 1.78350436077
719 1 5.71 13.822158796 3.56700872154
720 1 5.71 11.592778345 5.35051308229
721 1 5.71 9.36339789403 7.13401744308
722 1 5.71 7.13401744308 8.91752180383
723 1 5.71 4.9046369921 10.7010261646
724 1 5.71 2.67525654115 12.4845305254
725 1 5.71 0.445876090193 14.2680348862
726 1 5.71 12.0386544352 1.33762827058
727 1 5.71 9.80927398423 3.12113263134
728 1 5.71 7.57989353327 4.9046369921
729 1 5.71 5.35051308229 6.68814135288
730 1 5.71 3.12113263134 8.47164571364
731 1 5.71 0.891752180383 10.2551500744
732 1 5.71 8.02576962344 0.891752180383
733 1 5.71 5.79638917249 2.67525654115
734 1 5.71 3.56700872154 4.45876090193
735 1 5.71 1.33762827058 6.24226526269
736 1 5.71 4.01288481173 0.445876090193
737 1 5.71 1.78350436077 2.22938045096
738 1 5.71 0.0 0.0
739 1 7.1375 16.274477292 36.3389013506
740 1 7.1375 16.7203533822 32.3260165389
741 1 7.1375 14.4909729312 34.1095208997
742 1 7.1375 12.2615924803 35.8930252604
743 1 7.1375 17.1662294724 28.3131317272
744 1 7.1375 14.9368490214 30.096636088
745 1 7.1375 12.7074685705 31.8801404487
746 1 7.1375 10.4780881195 33.6636448095
747 1 7.1375 8.24870766855 35.4471491702
748 1 7.1375 17.6121055626 24.3002469155
749 1 7.1375 15.3827251116 26.0837512762
750 1 7.1375 13.1533446607 27.867255637
751 1 7.1375 10.9239642097 29.6507599978
752 1 7.1375 8.69458375875 31.4342643585
753 1 7.1375 6.46520330777 33.2177687193
754 1 7.1375 4.23582285682 35.0012730801