ITEM: TIMESTEP
0
ITEM: NUMBER OF ATOMS
10200
ITEM: BOX BOUNDS pp pp pp
0.0 91.5382635842
0.0 28.55
0.0 45.7691317921
ITEM: ATOMS id type x y z
1 1 0.0890450034865 1.4275 21.4598458403
2 1 0.26713501046 1.4275 18.6104057287
3 1 0.445225017433 1.4275 15.7609656171
4 1 0.623315024405 1.4275 12.9115255055
5 1 0.801405031378 1.4275 10.062085394
6 1 0.97949503835 1.4275 7.21264528239
7 1 1.15758504533 1.4275 4.36320517083
8 1 1.3356750523 1.4275 1.51376505927
9 1 0.0 0.0 0.0
10 1 1.51376505927 1.4275 44.4334567397
11 1 0.178090006973 0.0 42.9196916805
12 1 1.69185506624 1.4275 41.5840166281
13 1 0.356180013945 0.0 40.0702515689
14 1 1.86994507322 1.4275 38.7345765168
15 1 0.53427002092 0.0 37.2208114573
16 1 2.04803508019 1.4275 35.8851364052
17 1 0.712360027893 0.0 34.3713713457
18 1 2.22612508716 1.4275 33.0356962935
19 1 0.890450034865 0.0 31.5219312343
20 1 2.40421509414 1.4275 30.1862561819
21 1 1.06854004184 0.0 28.6724911227
22 1 2.58230510111 1.4275 27.3368160704
23 1 1.24663004881 0.0 25.8230510111
24 1 2.76039510808 1.4275 24.4873759588
25 1 1.42472005578 0.0 22.9736108995
26 1 2.93848511505 1.4275 21.6379358472
27 1 1.60281006276 0.0 20.124170788
28 1 3.11657512204 1.4275 18.7884957357
29 1 1.78090006973 0.0 17.2747306764
30 1 3.294665129 1.4275 15.9390556241
31 1 1.9589900767 0.0 14.4252905648
32 1 3.47275513599 1.4275 13.0896155125
33 1 2.13708008368 0.0 11.5758504533
34 1 3.65084514294 1.4275 10.2401754009
35 1 2.31517009065 0.0 8.72641034167
36 1 3.82893514993 1.4275 7.39073528938
37 1 2.49326009762 0.0 5.87697023011
38 1 4.00702515689 1.4275 4.54129517782
39 1 2.6713501046 0.0 3.02753011855
40 1 4.18511516388 1.4275 1.69185506624
41 1 2.84944011157 0.0 0.178090006973
42 1 4.36320517083 1.4275 44.6115467468
43 1 3.02753011855 0.0 43.0977816876
44 1 4.54129517782 1.4275 41.7621066352
45 1 3.20562012551 0.0 40.248341576
46 1 4.71938518478 1.4275 38.9126665236
47 1 3.38371013249 0.0 37.3989014644
48 1 4.89747519177 1.4275 36.063226412
49 1 3.56180013945 0.0 34.5494613528
50 1 5.07556519872 1.4275 33.2137863004
51 1 3.73989014644 0.0 31.7000212411
52 1 5.25365520571 1.4275 30.364346189
53 1 3.9179801534 0.0 28.8505811295
54 1 5.43174521267 1.4275 27.5149060773
55 1 4.09607016038 0.0 26.0011410181
56 1 5.60983521966 1.4275 24.6654659658
57 1 4.27416016734 0.0 23.1517009065
58 1 5.78792522661 1.4275 21.8160258542
59 1 4.45225017433 0.0 20.3022607949
60 1 5.9660152336 1.4275 18.9665857426
61 1 4.63034018129 0.0 17.4528206834
62 1 6.14410524056 1.4275 16.117145631
63 1 4.80843018827 0.0 14.6033805718
64 1 6.32219524755 1.4275 13.2677055195
65 1 4.98652019526 0.0 11.7539404602
66 1 6.5002852545 1.4275 10.4182654079
67 1 5.16461020222 0.0 8.90450034865
68 1 6.67837526149 1.4275 7.56882529637
69 1 5.3427002092 0.0 6.05506023709
70 1 6.85646526845 1.4275 4.71938518478
71 1 5.52079021616 0.0 3.20562012551
72 1 7.03455527544 1.4275 1.86994507322
73 1 5.69888022315 0.0 0.356180013945
74 1 7.21264528239 1.4275 44.7896367536
75 1 5.87697023011 0.0 43.2758716944
76 1 7.39073528938 1.4275 41.940196642
77 1 6.05506023709 0.0 40.4264315828
78 1 7.56882529637 1.4275 39.0907565307
79 1 6.23315024405 0.0 37.5769914712
80 1 7.74691530333 1.4275 36.2413164191
81 1 6.41124025104 0.0 34.7275513599
82 1 7.92500531031 1.4275 33.3918763075
83 1 6.589330258 0.0 31.8781112482
84 1 8.10309531727 1.4275 30.5424361958
85 1 6.76742026498 0.0 29.0286711366
86 1 8.28118532426 1.4275 27.6929960843
87 1 6.94551027194 0.0 26.179231025
88 1 8.45927533122 1.4275 24.8435559727
89 1 7.12360027893 0.0 23.3297909135
90 1 8.6373653382 1.4275 21.9941158612
91 1 7.30169028589 0.0 20.4803508019
92 1 8.81545534516 1.4275 19.1446757496
93 1 7.47978029287 0.0 17.6309106903
94 1 8.99354535215 1.4275 16.295235638
95 1 7.65787029983 0.0 14.7814705788
96 1 9.17163535911 1.4275 13.4457955265
97 1 7.83596030682 0.0 11.9320304672
98 1 9.34972536609 1.4275 10.5963554149
99 1 8.01405031378 0.0 9.08259035561
100 1 9.52781537305 1.4275 7.74691530333
101 1 8.19214032076 0.0 6.23315024405
102 1 9.70590538004 1.4275 4.89747519177
103 1 8.37023032772 0.0 3.38371013249
104 1 9.883995387 1.4275 2.04803508019
105 1 8.54832033471 0.0 0.53427002092
106 1 10.062085394 1.4275 44.9677267607
107 1 8.72641034167 0.0 43.4539617015
108 1 10.2401754009 1.4275 42.1182866491
109 1 8.90450034865 0.0 40.6045215899
110 1 10.4182654079 1.4275 39.2688465375
111 1 9.08259035561 0.0 37.7550814783
112 1 10.5963554149 1.4275 36.4194064259
113 1 9.2606803626 0.0 34.9056413667
114 1 10.7744454219 1.4275 33.5699663146
115 1 9.43877036956 0.0 32.0562012551
116 1 10.9525354288 1.4275 30.7205262029
117 1 9.61686037654 0.0 29.2067611434
118 1 11.1306254358 1.4275 27.8710860913
119 1 9.7949503835 0.0 26.357321032
120 1 11.3087154428 1.4275 25.0216459797
121 1 9.97304039049 0.0 23.5078809204
122 1 11.4868054498 1.4275 22.1722058681
123 1 10.1511303975 0.0 20.6584408089
124 1 11.6648954567 1.4275 19.3227657566
125 1 10.3292204044 0.0 17.8090006973
126 1 11.8429854637 1.4275 16.473325645
127 1 10.5073104114 0.0 14.9595605857
128 1 12.0210754707 1.4275 13.6238855334
129 1 10.6854004184 0.0 12.1101204742
130 1 12.1991654777 1.4275 10.7744454219
131 1 10.8634904254 0.0 9.2606803626
132 1 12.3772554846 1.4275 7.92500531031
133 1 11.0415804323 0.0 6.41124025104
134 1 12.5553454916 1.4275 5.07556519872
135 1 11.2196704393 0.0 3.56180013945
136 1 12.7334354986 1.4275 2.22612508716
137 1 11.3977604463 0.0 0.712360027893
138 1 12.9115255055 1.4275 45.1458167676
139 1 11.5758504533 0.0 43.6320517083
140 1 13.0896155125 1.4275 42.2963766562
141 1 11.7539404602 0.0 40.7826115967
142 1 13.2677055195 1.4275 39.4469365446
143 1 11.9320304672 0.0 37.9331714854
144 1 13.4457955265 1.4275 36.597496433
145 1 12.1101204742 0.0 35.0837313738
146 1 13.6238855334 1.4275 33.7480563214
147 1 12.2882104811 0.0 32.2342912622
148 1 13.8019755404 1.4275 30.8986162098
149 1 12.4663004881 0.0 29.3848511505
150 1 13.9800655474 1.4275 28.0491760983
151 1 12.6443904951 0.0 26.535411039
152 1 14.1581555544 1.4275 25.1997359867
153 1 12.8224805021 0.0 23.6859709274
154 1 14.3362455613 1.4275 22.3502958751
155 1 13.000570509 0.0 20.8365308159
156 1 14.5143355683 1.4275 19.5008557635
157 1 13.178660516 0.0 17.9870907043
158 1 14.6924255753 1.4275 16.651415652
159 1 13.356750523 0.0 15.1376505927
160 1 14.8705155823 1.4275 13.8019755404
161 1 13.5348405299 0.0 12.2882104811
162 1 15.0486055892 1.4275 10.9525354288
163 1 13.7129305369 0.0 9.43877036956
164 1 15.2266955962 1.4275 8.10309531727
165 1 13.8910205439 0.0 6.589330258
166 1 15.4047856032 1.4275 5.25365520571
167 1 14.0691105509 0.0 3.73989014644
168 1 15.5828756101 1.4275 2.40421509414
169 1 14.2472005578 0.0 0.890450034865
170 1 15.7609656171 1.4275 45.3239067747
171 1 14.4252905648 0.0 43.8101417154
172 1 15.9390556241 1.4275 42.474466663
173 1 14.6033805718 0.0 40.9607016038
174 1 16.117145631 1.4275 39.6250265514
175 1 14.7814705788 0.0 38.1112614922
176 1 16.295235638 1.4275 36.7755864398
177 1 14.9595605857 0.0 35.2618213806
178 1 16.473325645 1.4275 33.9261463285
179 1 15.1376505927 0.0 32.412381269
180 1 16.651415652 1.4275 31.0767062169
181 1 15.3157405997 0.0 29.5629411576
182 1 16.8295056589 1.4275 28.2272661052
183 1 15.4938306067 0.0 26.713501046
184 1 17.0075956659 1.4275 25.3778259936
185 1 15.6719206136 0.0 23.8640609344
186 1 17.1856856729 1.4275 22.5283858821
187 1 15.8500106206 0.0 21.0146208228
188 1 17.3637756799 1.4275 19.6789457705
189 1 16.0281006276 0.0 18.1651807113
190 1 17.5418656869 1.4275 16.8295056589
191 1 16.2061906345 0.0 15.3157405997
192 1 17.7199556938 1.4275 13.9800655474
193 1 16.3842806415 0.0 12.4663004881
194 1 17.8980457008 1.4275 11.1306254358
195 1 16.5623706485 0.0 9.61686037654
196 1 18.0761357078 1.4275 8.28118532426
197 1 16.7404606555 0.0 6.76742026498
198 1 18.2542257147 1.4275 5.43174521267
199 1 16.9185506624 0.0 3.9179801534
200 1 18.4323157217 1.4275 2.58230510111
201 1 17.0966406694 0.0 1.06854004184
202 1 18.6104057287 1.4275 45.5019967815
203 1 17.2747306764 0.0 43.9882317223
204 1 18.7884957357 1.4275 42.6525566701
205 1 17.4528206834 0.0 41.1387916106
206 1 18.9665857426 1.4275 39.8031165585
207 1 17.6309106903 0.0 38.2893514993
208 1 19.1446757496 1.4275 36.9536764469
209 1 17.8090006973 0.0 35.4399113877
210 1 19.3227657566 1.4275 34.1042363353
211 1 17.9870907043 0.0 32.5904712761
212 1 19.5008557635 1.4275 31.2547962237
213 1 18.1651807113 0.0 29.7410311645
214 1 19.6789457705 1.4275 28.4053561122
215 1 18.3432707182 0.0 26.8915910529
216 1 19.8570357775 1.4275 25.5559160006
217 1 18.5213607252 0.0 24.0421509414
218 1 20.0351257845 1.4275 22.7064758891
219 1 18.6994507322 0.0 21.1927108298
220 1 20.2132157914 1.4275 19.8570357775
221 1 18.8775407391 0.0 18.3432707182
222 1 20.3913057984 1.4275 17.0075956659
223 1 19.0556307461 0.0 15.4938306067
224 1 20.5693958054 1.4275 14.1581555544
225 1 19.2337207531 0.0 12.6443904951
226 1 20.7474858124 1.4275 11.3087154428
227 1 19.41181076 0.0 9.7949503835
228 1 20.9255758193 1.4275 8.45927533122
229 1 19.589900767 0.0 6.94551027194
230 1 21.1036658263 1.4275 5.60983521966
231 1 19.767990774 0.0 4.09607016038
232 1 21.2817558333 1.4275 2.76039510808
233 1 19.946080781 0.0 1.24663004881
234 1 21.4598458403 1.4275 45.6800867886
235 1 20.124170788 0.0 44.1663217294
236 1 21.6379358472 1.4275 42.830646677
237 1 20.3022607949 0.0 41.3168816177
238 1 21.8160258542 1.4275 39.9812065653
239 1 20.4803508019 0.0 38.4674415061
240 1 21.9941158612 1.4275 37.131766454
241 1 20.6584408089 0.0 35.6180013945
242 1 22.1722058681 1.4275 34.2823263424
243 1 20.8365308159 0.0 32.7685612832
244 1 22.3502958751 1.4275 31.4328862308
245 1 21.0146208228 0.0 29.9191211716
246 1 22.5283858821 1.4275 28.5834461192
247 1 21.1927108298 0.0 27.0696810599
248 1 22.7064758891 1.4275 25.7340060076
249 1 21.3708008368 0.0 24.2202409483
250 1 22.884565896 1.4275 22.884565896
251 1 21.5488908437 0.0 21.3708008368
252 1 23.062655903 1.4275 20.0351257845
253 1 21.7269808507 0.0 18.5213607252
254 1 23.24074591 1.4275 17.1856856729
255 1 21.9050708577 0.0 15.6719206136
256 1 23.418835917 1.4275 14.3362455613
257 1 22.0831608647 0.0 12.8224805021
258 1 23.5969259239 1.4275 11.4868054498
259 1 22.2612508716 0.0 9.97304039049
260 1 23.7750159309 1.4275 8.6373653382
261 1 22.4393408786 0.0 7.12360027893
262 1 23.9531059379 1.4275 5.78792522661
263 1 22.6174308856 0.0 4.27416016734
264 1 24.1311959449 1.4275 2.93848511505
265 1 22.7955208925 0.0 1.42472005578
266 1 24.3092859518 1.4275 0.0890450034865
267 1 22.9736108995 0.0 44.3444117362
268 1 24.4873759588 1.4275 43.0087366841
269 1 23.1517009065 0.0 41.4949716248
270 1 24.6654659658 1.4275 40.1592965724
271 1 23.3297909135 0.0 38.6455315132
272 1 24.8435559727 1.4275 37.3098564608
273 1 23.5078809204 0.0 35.7960914016
274 1 25.0216459797 1.4275 34.4604163492
275 1 23.6859709274 0.0 32.94665129
276 1 25.1997359867 1.4275 31.6109762376
277 1 23.8640609344 0.0 30.0972111784
278 1 25.3778259936 1.4275 28.7615361263
279 1 24.0421509414 0.0 27.2477710669
280 1 25.5559160006 1.4275 25.9120960146
281 1 24.2202409483 0.0 24.3983309553
282 1 25.7340060076 1.4275 23.062655903
283 1 24.3983309553 0.0 21.5488908437
284 1 25.9120960146 1.4275 20.2132157914
285 1 24.5764209623 0.0 18.6994507322
286 1 26.0901860215 1.4275 17.3637756799
287 1 24.7545109693 0.0 15.8500106206
288 1 26.2682760285 1.4275 14.5143355683
289 1 24.9326009762 0.0 13.000570509
290 1 26.4463660355 1.4275 11.6648954567
291 1 25.1106909832 0.0 10.1511303975
292 1 26.6244560425 1.4275 8.81545534516
293 1 25.2887809902 0.0 7.30169028589
294 1 26.8025460494 1.4275 5.9660152336
295 1 25.4668709971 0.0 4.45225017433
296 1 26.9806360564 1.4275 3.11657512204
297 1 25.6449610041 0.0 1.60281006276
298 1 27.1587260634 1.4275 0.26713501046
299 1 25.8230510111 0.0 44.5225017433
300 1 27.3368160704 1.4275 43.1868266909
301 1 26.0011410181 0.0 41.6730616317
302 1 27.5149060773 1.4275 40.3373865793
303 1 26.179231025 0.0 38.82362152
304 1 27.6929960843 1.4275 37.4879464679
305 1 26.357321032 0.0 35.9741814084
306 1 27.8710860913 1.4275 34.6385063563
307 1 26.535411039 0.0 33.1247412971
308 1 28.0491760983 1.4275 31.7890662447
309 1 26.713501046 0.0 30.2753011855
310 1 28.2272661052 1.4275 28.9396261331
311 1 26.8915910529 0.0 27.4258610739
312 1 28.4053561122 1.4275 26.0901860215
313 1 27.0696810599 0.0 24.5764209623
314 1 28.5834461192 1.4275 23.24074591
315 1 27.2477710669 0.0 21.7269808507
316 1 28.7615361263 1.4275 20.3913057984
317 1 27.4258610739 0.0 18.8775407391
318 1 28.9396261331 1.4275 17.5418656869
319 1 27.6039510808 0.0 16.0281006276
320 1 29.1177161402 1.4275 14.6924255753
321 1 27.7820410878 0.0 13.178660516
322 1 29.295806147 1.4275 11.8429854637
323 1 27.9601310948 0.0 10.3292204044
324 1 29.4738961541 1.4275 8.99354535215
325 1 28.1382211017 0.0 7.47978029287
326 1 29.6519861609 1.4275 6.14410524056
327 1 28.3163111087 0.0 4.63034018129
328 1 29.830076168 1.4275 3.294665129
329 1 28.4944011157 0.0 1.78090006973
330 1 30.0081661748 1.4275 0.445225017433
331 1 28.6724911227 0.0 44.7005917504
332 1 30.1862561819 1.4275 43.364916698
333 1 28.8505811295 0.0 41.8511516388
334 1 30.364346189 1.4275 40.5154765864
335 1 29.0286711366 0.0 39.0017115271
336 1 30.5424361958 1.4275 37.6660364747
337 1 29.2067611434 0.0 36.1522714155
338 1 30.7205262029 1.4275 34.8165963631
339 1 29.3848511505 0.0 33.3028313039
340 1 30.8986162098 1.4275 31.9671562518
341 1 29.5629411576 0.0 30.4533911923
342 1 31.0767062169 1.4275 29.1177161402
343 1 29.7410311645 0.0 27.6039510808
344 1 31.2547962237 1.4275 26.2682760285
345 1 29.9191211716 0.0 24.7545109693
346 1 31.4328862308 1.4275 23.418835917
347 1 30.0972111784 0.0 21.9050708577
348 1 31.6109762376 1.4275 20.5693958054
349 1 30.2753011855 0.0 19.0556307461
350 1 31.7890662447 1.4275 17.7199556938
351 1 30.4533911923 0.0 16.2061906345
352 1 31.9671562518 1.4275 14.8705155823
353 1 30.6314811994 0.0 13.356750523
354 1 32.1452462586 1.4275 12.0210754707
355 1 30.8095712062 0.0 10.5073104114
356 1 32.3233362657 1.4275 9.17163535911
357 1 30.9876612133 0.0 7.65787029983
358 1 32.5014262725 1.4275 6.32219524755
359 1 31.1657512204 0.0 4.80843018827
360 1 32.6795162796 1.4275 3.47275513599
361 1 31.3438412272 0.0 1.9589900767
362 1 32.8576062864 1.4275 0.623315024405
363 1 31.5219312343 0.0 44.8786817572
364 1 33.0356962935 1.4275 43.5430067048
365 1 31.7000212411 0.0 42.0292416456
366 1 33.2137863004 1.4275 40.6935665935
367 1 31.8781112482 0.0 39.179801534
368 1 33.3918763075 1.4275 37.8441264818
369 1 32.0562012551 0.0 36.3303614226
370 1 33.5699663146 1.4275 34.9946863702
371 1 32.2342912622 0.0 33.480921311
372 1 33.7480563214 1.4275 32.1452462586
373 1 32.412381269 0.0 30.6314811994
374 1 33.9261463285 1.4275 29.295806147
375 1 32.5904712761 0.0 27.7820410878
376 1 34.1042363353 1.4275 26.4463660355
377 1 32.7685612832 0.0 24.9326009762
378 1 34.2823263424 1.4275 23.5969259239
379 1 32.94665129 0.0 22.0831608647
380 1 34.4604163492 1.4275 20.7474858124
381 1 33.1247412971 0.0 19.2337207531
382 1 34.6385063563 1.4275 17.8980457008
383 1 33.3028313039 0.0 16.3842806415
384 1 34.8165963631 1.4275 15.0486055892
385 1 33.480921311 0.0 13.5348405299
386 1 34.9946863702 1.4275 12.1991654777
387 1 33.6590113178 0.0 10.6854004184
388 1 35.172776377 1.4275 9.34972536609
389 1 33.8371013249 0.0 7.83596030682
390 1 35.3508663841 1.4275 6.5002852545
391 1 34.0151913317 0.0 4.98652019526
392 1 35.5289563912 1.4275 3.65084514294
393 1 34.1932813388 0.0 2.13708008368
394 1 35.7070463981 1.4275 0.801405031378
395 1 34.3713713457 0.0 45.0567717643
396 1 35.8851364052 1.4275 43.7210967119
397 1 34.5494613528 0.0 42.2073316527
398 1 36.063226412 1.4275 40.8716566003
399 1 34.7275513599 0.0 39.3578915411
400 1 36.2413164191 1.4275 38.0222164887
401 1 34.9056413667 0.0 36.5084514294
402 1 36.4194064259 1.4275 35.172776377
403 1 35.0837313738 0.0 33.6590113178
404 1 36.597496433 1.4275 32.3233362657
405 1 35.2618213806 0.0 30.8095712062
406 1 36.7755864398 1.4275 29.4738961541
407 1 35.4399113877 0.0 27.9601310948
408 1 36.9536764469 1.4275 26.6244560425
409 1 35.6180013945 0.0 25.1106909832
410 1 37.131766454 1.4275 23.7750159309
411 1 35.7960914016 0.0 22.2612508716
412 1 37.3098564608 1.4275 20.9255758193
413 1 35.9741814084 0.0 19.41181076
414 1 37.4879464679 1.4275 18.0761357078
415 1 36.1522714155 0.0 16.5623706485
416 1 37.6660364747 1.4275 15.2266955962
417 1 36.3303614226 0.0 13.7129305369
418 1 37.8441264818 1.4275 12.3772554846
419 1 36.5084514294 0.0 10.8634904254
420 1 38.0222164887 1.4275 9.52781537305
421 1 36.6865414365 0.0 8.01405031378
422 1 38.2003064958 1.4275 6.67837526149
423 1 36.8646314434 0.0 5.16461020222
424 1 38.3783965026 1.4275 3.82893514993
425 1 37.0427214505 0.0 2.31517009065
426 1 38.5564865097 1.4275 0.97949503835
427 1 37.2208114573 0.0 45.2348617711
428 1 38.7345765168 1.4275 43.899186719
429 1 37.3989014644 0.0 42.3854216595
430 1 38.9126665236 1.4275 41.0497466074
431 1 37.5769914712 0.0 39.5359815482
432 1 39.0907565307 1.4275 38.2003064958
433 1 37.7550814783 0.0 36.6865414365
434 1 39.2688465375 1.4275 35.3508663841
435 1 37.9331714854 0.0 33.8371013249
436 1 39.4469365446 1.4275 32.5014262725
437 1 38.1112614922 0.0 30.9876612133
438 1 39.6250265514 1.4275 29.6519861609
439 1 38.2893514993 0.0 28.1382211017
440 1 39.8031165585 1.4275 26.8025460494
441 1 38.4674415061 0.0 25.2887809902
442 1 39.9812065653 1.4275 23.9531059379
443 1 38.6455315132 0.0 22.4393408786
444 1 40.1592965724 1.4275 21.1036658263
445 1 38.82362152 0.0 19.589900767
446 1 40.3373865793 1.4275 18.2542257147
447 1 39.0017115271 0.0 16.7404606555
448 1 40.5154765864 1.4275 15.4047856032
449 1 39.179801534 0.0 13.8910205439
450 1 40.6935665935 1.4275 12.5553454916
451 1 39.3578915411 0.0 11.0415804323
452 1 40.8716566003 1.4275 9.70590538004
453 1 39.5359815482 0.0 8.19214032076
454 1 41.0497466074 1.4275 6.85646526845
455 1 39.714071555 0.0 5.3427002092
456 1 41.2278366142 1.4275 4.00702515689
457 1 39.8921615621 0.0 2.49326009762
458 1 41.4059266213 1.4275 1.15758504533
459 1 40.0702515689 0.0 45.4129517782
460 1 41.5840166281 1.4275 44.0772767258
461 1 40.248341576 0.0 42.5635116666
462 1 41.7621066352 1.4275 41.2278366142
463 1 40.4264315828 0.0 39.714071555
464 1 41.940196642 1.4275 38.3783965026
465 1 40.6045215899 0.0 36.8646314434
466 1 42.1182866491 1.4275 35.5289563912
467 1 40.7826115967 0.0 34.0151913317
468 1 42.2963766562 1.4275 32.6795162796
469 1 40.9607016038 0.0 31.1657512204
470 1 42.474466663 1.4275 29.830076168
471 1 41.1387916106 0.0 28.3163111087
472 1 42.6525566701 1.4275 26.9806360564
473 1 41.3168816177 0.0 25.4668709971
474 1 42.830646677 1.4275 24.1311959449
475 1 41.4949716248 0.0 22.6174308856
476 1 43.0087366841 1.4275 21.2817558333
477 1 41.6730616317 0.0 19.767990774
478 1 43.1868266909 1.4275 18.4323157217
479 1 41.8511516388 0.0 16.9185506624
480 1 43.364916698 1.4275 15.5828756101
481 1 42.0292416456 0.0 14.0691105509
482 1 43.5430067048 1.4275 12.7334354986
483 1 42.2073316527 0.0 11.2196704393
484 1 43.7210967119 1.4275 9.883995387
485 1 42.3854216595 0.0 8.37023032772
486 1 43.899186719 1.4275 7.03455527544
487 1 42.5635116666 0.0 5.52079021616
488 1 44.0772767258 1.4275 4.18511516388
489 1 42.7416016734 0.0 2.6713501046
490 1 44.2553667329 1.4275 1.3356750523
491 1 42.9196916805 0.0 45.591041785
492 1 44.4334567397 1.4275 44.2553667329
493 1 43.0977816876 0.0 42.7416016734
494 1 44.6115467468 1.4275 41.4059266213
495 1 43.2758716944 0.0 39.8921615621
496 1 44.7896367536 1.4275 38.5564865097
497 1 43.4539617015 0.0 37.0427214505
498 1 44.9677267607 1.4275 35.7070463981
499 1 43.6320517083 0.0 34.1932813388
500 1 45.1458167676 1.4275 32.8576062864
501 1 43.8101417154 0.0 31.3438412272
502 1 45.3239067747 1.4275 30.0081661748
503 1 43.9882317223 0.0 28.4944011157
504 1 44.1663217294 0.0 25.6449610041
505 1 44.3444117362 0.0 22.7955208925
506 1 44.5225017433 0.0 19.946080781
507 1 44.7005917504 0.0 17.0966406694
508 1 44.8786817572 0.0 14.2472005578
509 1 45.0567717643 0.0 11.3977604463
510 1 45.2348617711 0.0 8.54832033471
511 1 0.0890450034865 4.2825 21.4598458403
512 1 0.26713501046 4.2825 18.6104057287
513 1 0.445225017433 4.2825 15.7609656171
514 1 0.623315024405 4.2825 12.9115255055
515 1 0.801405031378 4.2825 10.062085394
516 1 0.97949503835 4.2825 7.21264528239
517 1 1.15758504533 4.2825 4.36320517083
518 1 1.3356750523 4.2825 1.51376505927
519 1 0.0 2.855 0.0
520 1 1.51376505927 4.2825 44.4334567397
521 1 0.178090006973 2.855 42.9196916805
522 1 1.69185506624 4.2825 41.5840166281
523 1 0.356180013945 2.855 40.0702515689
524 1 1.86994507322 4.2825 38.7345765168
525 1 0.53427002092 2.855 37.2208114573
526 1 2.04803508019 4.2825 35.8851364052
527 1 0.712360027893 2.855 34.3713713457
528 1 2.22612508716 4.2825 33.0356962935
529 1 0.890450034865 2.855 31.5219312343
530 1 2.40421509414 4.2825 30.1862561819
531 1 1.06854004184 2.855 28.6724911227
532 1 2.58230510111 4.2825 27.3368160704
533 1 1.24663004881 2.855 25.8230510111
534 1 2.76039510808 4.2825 24.4873759588
535 1 1.42472005578 2.855 22.9736108995
536 1 2.93848511505 4.2825 21.6379358472
537 1 1.60281006276 2.855 20.124170788
538 1 3.11657512204 4.2825 18.7884957357
539 1 1.78090006973 2.855 17.2747306764
540 1 3.294665129 4.2825 15.9390556241
541 1 1.9589900767 2.855 14.4252905648
542 1 3.47275513599 4.2825 13.0896155125
543 1 2.13708008368 2.855 11.5758504533
544 1 3.65084514294 4.2825 10.2401754009
545 1 2.31517009065 2.855 8.72641034167
546 1 3.82893514993 4.2825 7.39073528938
547 1 2.49326009762 2.855 5.87697023011
548 1 4.00702515689 4.2825 4.54129517782
549 1 2.6713501046 2.855 3.02753011855
550 1 4.18511516388 4.2825 1.69185506624
551 1 2.84944011157 2.855 0.178090006973
552 1 4.36320517083 4.2825 44.6115467468
553 1 3.02753011855 2.855 43.0977816876
554 1 4.54129517782 4.2825 41.7621066352
555 1 3.20562012551 2.855 40.248341576
556 1 4.71938518478 4.2825 38.9126665236
557 1 3.38371013249 2.855 37.3989014644
558 1 4.89747519177 4.2825 36.063226412
559 1 3.56180013945 2.855 34.5494613528
560 1 5.07556519872 4.2825 33.2137863004
561 1 3.73989014644 2.855 31.7000212411
562 1 5.25365520571 4.2825 30.364346189
563 1 3.9179801534 2.855 28.8505811295
564 1 5.43174521267 4.2825 27.5149060773
565 1 4.09607016038 2.855 26.0011410181
566 1 5.60983521966 4.2825 24.6654659658
567 1 4.27416016734 2.855 23.1517009065
568 1 5.78792522661 4.2825 21.8160258542
569 1 4.45225017433 2.855 20.3022607949
570 1 5.9660152336 4.2825 18.9665857426
571 1 4.63034018129 2.855 17.4528206834
572 1 6.14410524056 4.2825 16.117145631
573 1 4.80843018827 2.855 14.6033805718
574 1 6.32219524755 4.2825 13.2677055195
575 1 4.98652019526 2.855 11.7539404602
576 1 6.5002852545 4.2825 10.4182654079
577 1 5.16461020222 2.855 8.90450034865
578 1 6.67837526149 4.2825 7.56882529637
579 1 5.3427002092 2.855 6.05506023709
580 1 6.85646526845 4.2825 4.71938518478
581 1 5.52079021616 2.855 3.20562012551
582 1 7.03455527544 4.2825 1.86994507322
583 1 5.69888022315 2.855 0.356180013945
584 1 7.21264528239 4.2825 44.7896367536
585 1 5.87697023011 2.855 43.2758716944
586 1 7.39073528938 4.2825 41.940196642
587 1 6.05506023709 2.855 40.4264315828
588 1 7.56882529637 4.2825 39.0907565307
589 1 6.23315024405 2.855 37.5769914712
590 1 7.74691530333 4.2825 36.2413164191
591 1 6.41124025104 2.855 34.7275513599
592 1 7.92500531031 4.2825 33.3918763075
593 1 6.589330258 2.855 31.8781112482
594 1 8.10309531727 4.2825 30.5424361958
595 1 6.76742026498 2.855 29.0286711366
596 1 8.28118532426 4.2825 27.6929960843
597 1 6.94551027194 2.855 26.179231025
598 1 8.45927533122 4.2825 24.8435559727
599 1 7.12360027893 2.855 23.3297909135
600 1 8.6373653382 4.2825 21.9941158612
601 1 7.30169028589 2.855 20.4803508019
602 1 8.81545534516 4.2825 19.1446757496
603 1 7.47978029287 2.855 17.6309106903
604 1 8.99354535215 4.2825 16.295235638
605 1 7.65787029983 2.855 14.7814705788
606 1 9.17163535911 4.2825 13.4457955265
607 1 7.83596030682 2.855 11.9320304672
608 1 9.34972536609 4.2825 10.5963554149
609 1 8.01405031378 2.855 9.08259035561
610 1 9.52781537305 4.2825 7.74691530333
611 1 8.19214032076 2.855 6.23315024405
612 1 9.70590538004 4.2825 4.89747519177
613 1 8.37023032772 2.855 3.38371013249
614 1 9.883995387 4.2825 2.04803508019
615 1 8.54832033471 2.855 0.53427002092
616 1 10.062085394 4.2825 44.9677267607
617 1 8.72641034167 2.855 43.4539617015
618 1 10.2401754009 4.2825 42.1182866491
619 1 8.90450034865 2.855 40.6045215899
620 1 10.4182654079 4.2825 39.2688465375
621 1 9.08259035561 2.855 37.7550814783
622 1 10.5963554149 4.2825 36.4194064259
623 1 9.2606803626 2.855 34.9056413667
624 1 10.7744454219 4.2825 33.5699663146
625 1 9.43877036956 2.855 32.0562012551
626 1 10.9525354288 4.2825 30.7205262029
627 1 9.61686037654 2.855 29.2067611434
628 1 11.1306254358 4.2825 27.8710860913
629 1 9.7949503835 2.855 26.357321032
630 1 11.3087154428 4.2825 25.0216459797
631 1 9.97304039049 2.855 23.5078809204
632 1 11.4868054498 4.2825 22.1722058681
633 1 10.1511303975 2.855 20.6584408089
634 1 11.6648954567 4.2825 19.3227657566
635 1 10.3292204044 2.855 17.8090006973
636 1 11.8429854637 4.2825 16.473325645
637 1 10.5073104114 2.855 14.9595605857
638 1 12.0210754707 4.2825 13.6238855334
639 1 10.6854004184 2.855 12.1101204742
640 1 12.1991654777 4.2825 10.7744454219
641 1 10.8634904254 2.855 9.2606803626
642 1 12.3772554846 4.2825 7.92500531031
643 1 11.0415804323 2.855 6.41124025104
644 1 12.5553454916 4.2825 5.07556519872
645 1 11.2196704393 2.855 3.56180013945
646 1 12.7334354986 4.2825 2.22612508716
647 1 11.3977604463 2.855 0.712360027893
648 1 12.9115255055 4.2825 45.1458167676
649 1 11.5758504533 2.855 43.6320517083
650 1 13.0896155125 4.2825 42.2963766562
651 1 11.7539404602 2.855 40.7826115967
652 1 13.2677055195 4.2825 39.4469365446
653 1 11.9320304672 2.855 37.9331714854
654 1 13.4457955265 4.2825 36.597496433
655 1 12.1101204742 2.855 35.0837313738
656 1 13.6238855334 4.2825 33.7480563214
657 1 12.2882104811 2.855 32.2342912622
658 1 13.8019755404 4.2825 30.8986162098
659 1 12.4663004881 2.855 29.3848511505
660 1 13.9800655474 4.2825 28.0491760983
661 1 12.6443904951 2.855 26.535411039
662 1 14.1581555544 4.2825 25.1997359867
663 1 12.8224805021 2.855 23.6859709274
664 1 14.3362455613 4.2825 22.3502958751
665 1 13.000570509 2.855 20.8365308159
666 1 14.5143355683 4.2825 19.5008557635
667 1 13.178660516 2.855 17.9870907043
668 1 14.6924255753 4.2825 16.651415652
669 1 13.356750523 2.855 15.1376505927
670 1 14.8705155823 4.2825 13.8019755404
671 1 13.5348405299 2.855 12.2882104811
672 1 15.0486055892 4.2825 10.9525354288
673 1 13.7129305369 2.855 9.43877036956
674 1 15.2266955962 4.2825 8.10309531727
675 1 13.8910205439 2.855 6.589330258
676 1 15.4047856032 4.2825 5.25365520571
677 1 14.0691105509 2.855 3.73989014644
678 1 15.5828756101 4.2825 2.40421509414
679 1 14.2472005578 2.855 0.890450034865
680 1 15.7609656171 4.2825 45.3239067747
681 1 14.4252905648 2.855 43.8101417154
682 1 15.9390556241 4.2825 42.474466663
683 1 14.6033805718 2.855 40.9607016038
684 1 16.117145631 4.2825 39.6250265514
685 1 14.7814705788 2.855 38.1112614922
686 1 16.295235638 4.2825 36.7755864398
687 1 14.9595605857 2.855 35.2618213806
688 1 16.473325645 4.2825 33.9261463285
689 1 15.1376505927 2.855 32.412381269
690 1 16.651415652 4.2825 31.0767062169
691 1 15.3157405997 2.855 29.5629411576
692 1 16.8295056589 4.2825 28.2272661052
693 1 15.4938306067 2.855 26.713501046
694 1 17.0075956659 4.2825 25.3778259936
695 1 15.6719206136 2.855 23.8640609344
696 1 17.1856856729 4.2825 22.5283858821
697 1 15.8500106206 2.855 21.0146208228
698 1 17.3637756799 4.2825 19.6789457705
699 1 16.0281006276 2.855 18.1651807113
700 1 17.5418656869 4.2825 16.8295056589
701 1 16.2061906345 2.855 15.3157405997
702 1 17.7199556938 4.2825 13.9800655474
703 1 16.3842806415 2.855 12.4663004881
704 1 17.8980457008 4.2825 11.1306254358
705 1 16.5623706485 2.855 9.61686037654
706 1 18.0761357078 4.2825 8.28118532426
707 1 16.7404606555 2.855 6.76742026498
708 1 18.2542257147 4.2825 5.43174521267
709 1 16.9185506624 2.855 3.9179801534
710 1 18.4323157217 4.2825 2.58230510111
711 1 17.0966406694 2.855 1.06854004184
712 1 18.6104057287 4.2825 45.5019967815
713 1 17.2747306764 2.855 43.9882317223
714 1 18.7884957357 4.2825 42.6525566701
715 1 17.4528206834 2.855 41.1387916106
716 1 18.9665857426 4.2825 39.8031165585
717 1 17.6309106903 2.855 38.2893514993
718 1 19.1446757496 4.2825 36.9536764469
719 1 17.8090006973 2.855 35.4399113877
720 1 19.3227657566 4.2825 34.1042363353
721 1 17.9870907043 2.855 32.5904712761
722 1 19.5008557635 4.2825 31.2547962237
723 1 18.1651807113 2.855 29.7410311645
724 1 19.6789457705 4.2825 28.4053561122
725 1 18.3432707182 2.855 26.8915910529
726 1 19.8570357775 4.2825 25.5559160006
727 1 18.5213607252 2.855 24.0421509414
728 1 20.0351257845 4.2825 22.7064758891
729 1 18.6994507322 2.855 21.1927108298
730 1 20.2132157914 4.2825 19.8570357775
731 1 18.8775407391 2.855 18.3432707182
732 1 20.3913057984 4.2825 17.0075956659
733 1 19.0556307461 2.855 15.4938306067
734 1 20.5693958054 4.2825 14.1581555544
735 1 19.2337207531 2.855 12.6443904951
736 1 20.7474858124 4.2825 11.3087154428
737 1 19.41181076 2.855 9.7949503835
738 1 20.9255758193 4.2825 8.45927533122
739 1 19.589900767 2.855 6.94551027194
740 1 21.1036658263 4.2825 5.60983521966
741 1 19.767990774 2.855 4.09607016038
742 1 21.2817558333 4.2825 2.76039510808
743 1 19.946080781 2.855 1.24663004881
744 1 21.4598458403 4.2825 45.6800867886
745 1 20.124170788 2.855 44.1663217294
746 1 21.6379358472 4.2825 42.830646677
747 1 20.3022607949 2.855 41.3168816177
748 1 21.8160258542 4.2825 39.9812065653
749 1 20.4803508019 2.855 38.4674415061
750 1 21.9941158612 4.2825 37.131766454
751 1 20.6584408089 2.855 35.6180013945
752 1 22.1722058681 4.2825 34.2823263424
753 1 20.8365308159 2.855 32.7685612832
754 1 22.3502958751 4.2825 31.4328862308
755 1 21.0146208228 2.855 29.9191211716
756 1 22.5283858821 4.2825 28.5834461192