ITEM: TIMESTEP
4000
ITEM: NUMBER OF ATOMS
9560
ITEM: BOX BOUNDS pp pp pp
0.0 88.6430375159
0.0 28.55
0.0 44.3215187579
ITEM: ATOMS id type x y z
2 1 1.37740853789 1.03161899686 1.61605724612
491 1 3.0163516813 2.70234897243 0.575239391537
489 1 2.07430723886 2.76083320517 3.07303540953
481 1 0.218963502735 3.11783975903 0.417466176228
12 1 4.02092350562 1.42448195294 2.32819051976
29 1 6.72487940194 1.39488014463 3.11903891453
508 1 5.73557732353 2.78180425548 1.30999407161
31 1 7.4485091953 1.37250452581 0.330734188688
57 1 10.1406861182 1.37688404918 1.12929083407
534 1 8.4193528466 2.80894484438 2.11594069221
565 1 11.1225367037 2.80841831251 2.87791504984
88 1 12.8519029314 1.37552091061 1.85317955504
597 1 13.8460712418 2.8060452462 3.60238746572
599 1 14.5824065437 2.79879809834 0.824540821178
567 1 11.8440756647 2.80010550398 0.102971356246
120 1 15.5792301274 1.38130545264 2.57320466923
151 1 18.3038960954 1.37152579073 3.30274830104
630 1 17.311525962 2.79647546848 1.55047528287
153 1 19.0467811935 1.35627374103 0.559845626552
185 1 21.7683444942 1.36536617428 1.27326331957
662 1 20.0404577873 2.79426381939 2.29104303601
216 1 24.503298728 1.36300173208 2.0026150835
693 1 22.7716776697 2.79353314033 3.01756609982
695 1 23.5030562743 2.79239447777 0.259057247488
248 1 27.2415703219 1.36159629798 2.72753489589
727 1 26.2368070509 2.79223202091 0.987112642784
759 1 28.9777884376 2.79090066966 1.71425324747
280 1 29.9878755323 1.35859998731 3.44988078299
282 1 30.7133835692 1.36102513527 0.705981210274
791 1 31.731745186 2.78200052124 2.43883384904
314 1 33.4751524522 1.34651708767 1.43377130804
345 1 36.2615971914 1.32815202209 2.14736782155
822 1 34.4932667221 2.76814987652 3.15849745391
824 1 35.2254909825 2.78079362963 0.447418100065
376 1 39.0504719616 1.40004603145 2.81755307197
855 1 37.8747430472 2.92496628195 1.2299703981
378 2 39.5439418476 1.91137564897 0.218594131594
887 1 40.7368360952 3.08312747576 1.95245276499
410 2 42.6714726772 1.8248452926 1.08760254984
918 1 43.4315812593 3.04903356419 2.81623764364
408 1 41.6599473253 1.40107841985 3.59496887161
4868 1 44.6524601901 0.234386407959 0.108149367607
4866 1 45.083603353 1.53742401652 2.26975837246
5347 1 45.5047589681 3.98035983462 1.82024918253
5344 1 47.7275913296 2.6682574928 2.36568348383
4786 2 46.2095571482 2.03117135577 0.497396115456
5411 1 49.8355827729 2.91982728162 1.09234465103
4899 1 49.8128344946 1.40824869836 3.05443876662
4933 1 50.5704839898 0.0759808156493 1.10295489303
4901 1 48.4327464155 1.09013179296 0.568291738929
4932 2 51.9538955321 1.72652030611 1.767329078
4964 1 55.3435502274 1.48099830361 1.57230646397
5443 1 53.5589073946 2.95749191994 0.552386568784
5441 1 54.2249334781 2.79853598766 3.2914202843
4965 1 53.4662260012 0.0848951570746 0.690386320493
4963 2 54.419534595 0.0330142191538 3.31285125337
4997 1 58.0006621159 1.44957688523 0.894297924835
5474 1 57.0156613366 2.89022644078 2.6409998249
4996 1 57.0026849977 0.0186963970824 2.6336904725
4995 1 58.7292140807 1.45307563171 3.65921281766
5028 1 61.4358464584 1.42606264722 2.92798480149
5030 1 60.7216455188 1.44425098444 0.176510755095
5507 1 59.7508651732 2.881242792 1.92821457233
5540 1 62.4553963479 2.86883198833 1.20956326313
5029 1 59.7174448732 0.0144568090373 1.91470574912
5062 1 62.440070863 0.00924004167074 1.19867667797
5061 1 64.1735197735 1.42402094645 2.20842597667
5572 1 65.1512030429 2.87476314287 0.496732637345
5570 1 65.865526097 2.86966000468 3.24631958243
5094 1 65.1609328776 0.00867317041569 0.480250574835
5092 1 65.8894526913 0.00605777948993 3.2437000677
5093 1 66.8804912091 1.44059717927 1.50528408894
5126 1 69.6079695422 1.43579745076 0.775712650549
5603 1 68.6091366641 2.86413337568 2.51952315473
5125 1 68.6128996606 0.00883699467108 2.52305294552
5157 1 73.0735348997 1.44248148412 2.80978773476
5636 1 71.3307046511 2.86215090231 1.79323139952
5124 1 70.3429429821 1.4350796592 3.54214962731
4998 1 72.3397453837 1.44511212494 0.0500112324578
5158 1 71.3441445145 0.0113229486922 1.79624108433
5189 1 75.7888424689 1.44813192001 2.07528802435
5668 1 74.0577860635 2.88410012757 1.0623174883
5698 1 76.7839875914 2.879339625 0.337660828602
5696 1 77.4975899344 2.87084012743 3.09087686261
5190 1 74.0694093361 0.0116191598539 1.0677404353
5220 1 76.7968026413 0.00870536332199 0.341404190442
5218 1 77.5198749866 0.00714151409184 3.10820768327
5219 1 78.5178007332 1.43410096633 1.35913064332
5718 1 80.2404209773 2.85229371798 2.38003381746
5240 1 80.2556024529 0.00904770635301 2.39476138216
5241 1 81.2796732888 1.42146829303 0.655812650093
5731 1 83.0335172206 2.83316458107 1.65200180309
5239 1 81.9712058409 1.47310423621 3.43914338195
5252 1 84.7101039208 1.52850027796 2.83754949459
5253 1 83.0115656039 0.0159540190356 1.75826576861
1 1 87.8735937157 2.04327528148 2.45233289318
5736 1 85.7280740093 2.75880170202 0.921375694681
5258 1 85.7929558935 0.136453977824 1.35668512445
480 2 1.68659468228 4.49310280634 1.3674779221
958 1 1.28607878236 6.98856021694 1.61675277089
969 1 3.23946468607 5.76371966359 0.526785417756
967 1 2.40492488627 5.67735400045 3.2776941943
479 1 0.240638968987 4.54913815125 3.05404191837
490 1 4.05264263823 4.18915194457 2.31549526317
968 1 4.0675898249 7.15349685588 2.3861876359
507 1 6.70092425763 4.24648191764 3.10133430436
985 1 6.67787969964 7.10913104303 3.12675397535
986 1 5.71187569713 5.65786911971 1.31789148221
987 1 7.44584256653 7.09530175992 0.355852887454
509 1 7.43997795665 4.21215261545 0.325443700851
535 1 10.1371199279 4.23408643794 1.11057137871
1012 1 8.41597249918 5.67184058333 2.11262413774
1013 1 10.1462007188 7.0986486486 1.11587264747
1043 1 11.1303878856 5.66956332345 2.87193795072
566 1 12.8543153123 4.22887465112 1.84863415253
1044 1 12.8668131866 7.08309681013 1.85037970595
1075 1 13.8506748731 5.66065138423 3.60087257525
1077 1 14.597682121 5.63691852614 0.825731919641
1045 1 11.8602404869 5.65924671191 0.0970754114666
598 1 15.5810824443 4.2184559423 2.57229822951
629 1 18.3064492116 4.22233331086 3.30247290704
1076 1 15.5848540319 7.07614592175 2.577954977
1107 1 18.3031339278 7.07617360706 3.30209514366
1108 1 17.3051094725 5.63177712951 1.54474397478
631 1 19.0510737957 4.23146720005 0.560044468574
663 1 21.7697849826 4.22130594616 1.27206797122
1109 1 19.033918215 7.06297577275 0.532274653028
1140 1 20.0389408679 5.65119676315 2.28837499163
1141 1 21.7693390587 7.07883781893 1.26955351809
694 1 24.50404066 4.22271620437 2.0007826068
1171 1 22.7708848145 5.65330356471 3.01602066342
1172 1 24.503125278 7.08201157379 1.99860039276
1173 1 23.5024343606 5.65003573163 0.255618142729
726 1 27.2421683063 4.22071704408 2.72593363341
1204 1 27.2405410232 7.07992412648 2.72381030588
1205 1 26.2370785365 5.65144256584 0.98398677647
1237 1 28.977446231 5.6495511592 1.71206466217
758 1 29.988409334 4.21525639859 3.45047995818
760 1 30.7166623712 4.21955765217 0.705369654862
1236 1 29.9802338546 7.07784086961 3.45100656384
1238 1 30.7113326913 7.08059949013 0.699649586572
1269 1 31.7208490411 5.64850761243 2.44420434519
792 1 33.4662860224 4.21890268914 1.44126357421
823 1 36.1790965887 4.27037589844 2.20048688789
1270 1 33.4449623538 7.09061713957 1.43961439605
1300 1 34.4545410494 5.6666521764 3.19206852314
1301 1 36.1969597609 7.09916261533 2.18096609289
1302 1 35.1705643787 5.68086389266 0.440669834435
854 1 38.9452776139 4.32059532971 2.96524386706
1332 1 38.9603223425 7.10518500021 2.91660294618
1333 1 37.9348528046 5.70279182954 1.17300049344
1334 1 39.7279380657 7.11692624736 0.0987958540874
856 1 39.6737596009 4.40269852417 0.179288404391
1365 1 40.7272770323 5.7210661817 1.90399372678
1396 1 42.5703811576 4.39587149929 0.912411845009
1364 1 41.7001116565 7.12057096198 3.65381809801
1366 1 42.4308533921 7.10100266468 0.767495249758
6217 1 43.5831163423 5.7886164264 2.55247696657
5346 2 46.0295875225 6.11695773887 1.59220417925
5377 1 49.621379629 4.18405133549 3.22899876719
5822 1 48.1910826388 4.97668662399 1.50304619007
5855 1 49.7277521997 6.87904482079 2.99222111404
5889 1 50.892076485 5.51588811427 1.31536527289
5857 1 49.1432971253 7.16818900221 0.244914659523
5410 2 52.853248165 4.56705297046 2.39699497061
5442 1 55.2993250227 4.3179452738 1.62512324642
5888 1 52.5152973004 7.13990362012 2.33430550698
5921 1 53.6183145613 5.8230005919 0.553806744159
5919 1 54.3762545915 5.81529527954 3.39701571798
5920 1 55.3395874063 7.20392187272 1.61739985215
5475 1 58.0227334664 4.30285683678 0.902023720058
5952 1 57.0207999987 5.73546647223 2.65166250481
5953 1 58.0433297111 7.16174426673 0.91052023438
5951 1 58.7568211667 7.15555427777 3.66838154657
5473 1 58.7557565374 4.30569505702 3.66942792958
5506 1 61.4979484163 4.29544220911 2.94787435555
5508 1 60.7454424714 4.29707219576 0.184808526095
5984 1 61.4611056039 7.17180110134 2.92533857784
5985 1 59.7659622053 5.71767246406 1.93161080287
5986 1 60.7478176989 7.15426188951 0.181037215386
6018 1 62.4670101837 5.72692232382 1.20619305209
5539 1 64.1550357125 4.2993009589 2.24108340278
6017 1 64.1942176822 7.16879698056 2.19412859155
6050 1 65.1706777374 5.7230914517 0.472689187065
6048 1 65.8721642497 5.71987429901 3.24069761331
5571 1 66.8764941701 4.29458648199 1.5027688154
5604 1 69.6000936274 4.29282011723 0.768597585115
6049 1 66.8922943627 7.14553702615 1.47972320568
6081 1 68.6063552776 5.71601375338 2.51664888476
6082 1 69.5881673609 7.14301106081 0.759891563881
5635 1 73.0471525188 4.27578238526 2.82372583569
6113 1 73.0402580024 7.14491107397 2.82148514239
6114 1 71.3170941571 5.71535527833 1.7909682114
5602 1 70.3382669177 4.28749196232 3.53818089211
6080 1 70.3347454216 7.13919129233 3.5367747405
5476 1 72.3021388102 4.28458231174 0.037846956322
5954 1 72.2942554247 7.14881326598 0.0366691179504
6146 2 73.9077983929 5.7119806872 1.09772920646
5667 1 75.7696458565 4.30566721193 2.05645824384
6145 1 75.760671297 7.10030115911 2.04747987995
6176 2 76.9055091448 5.69213356827 0.302626068259
6174 1 77.4874907408 5.69519199832 3.07951796753
5697 1 78.522563784 4.26079241942 1.35949198124
6175 1 78.4924821618 7.12338565489 1.34550389917
6196 1 80.2135539029 5.67974523734 2.37350086673
6197 1 81.2051876031 7.11922065232 0.634975720696
5719 1 81.2615699206 4.2686970233 0.6380939076
5730 1 84.690415796 4.24450289716 2.76193861814
6208 1 84.6681889872 7.13185190128 2.69596117706
6209 1 82.9733493682 5.7057160632 1.66364211615
6195 1 81.8873609197 7.07931186075 3.41043834965
5717 1 81.9602669801 4.25595559855 3.40599012724
5735 2 87.0162473009 4.25660465464 1.93698574934
6213 1 87.4781915481 6.68924819247 1.68417356921
6214 1 85.4598490802 5.77968641015 0.962403094622
1436 1 3.03123985261 8.47211869227 0.622678859046
1925 1 3.11943190625 11.3658083481 0.610699935609
1915 1 1.49823285637 9.9449147766 1.63294754996
1445 1 2.19055871862 8.42783534942 3.39370947268
1923 1 2.34272050798 11.2995956305 3.50102861607
1913 1 0.0899711792243 11.6521809537 3.06733850377
1446 1 3.97449322138 9.89570643279 2.4357936709
1463 1 6.67485614598 9.94812965266 3.15509974864
1464 1 5.73767936233 8.54309021822 1.36700438441
1942 1 5.67831466501 11.3694230526 1.38661219307
1465 1 7.43482185497 9.98411371777 0.369540697076
1490 1 8.41548468621 8.53379012001 2.12739554848
1491 1 10.1554345549 9.95526572907 1.12964777502
1968 1 8.42286829373 11.3684989555 2.1522382424
1999 1 11.1535006426 11.3700035381 2.90321873365
1521 1 11.1436799868 8.52579404106 2.87803778416
1522 1 12.871420421 9.94003865167 1.85833388861
1553 1 13.8606918879 8.51746714198 3.60604039126
1555 1 14.5977075972 8.50255370763 0.831535158569
2031 1 13.8482550705 11.3501659671 3.59918673933
2033 1 14.5966667503 11.3680309793 0.843740620781
1523 1 11.8789167312 8.51462597662 0.101951377107
2001 1 11.8812138102 11.3731406748 0.116050525578
1554 1 15.5867573279 9.93813550871 2.58386521812
1585 1 18.3064814826 9.93629600864 3.30812412619
1586 1 17.3112152593 8.50026303119 1.55602137965
2064 1 17.3124081315 11.3659732481 1.56711067889
1587 1 19.0402333454 9.93271723328 0.541722972531
1618 1 20.0351326421 8.50450965293 2.28540853935
1619 1 21.7677536215 9.93650034553 1.27080087977
2096 1 20.0356114069 11.3659436781 2.29250357011
1649 1 22.7686239314 8.5117136599 3.01653088221
1650 1 24.5024628599 9.93976218175 1.99887873815
2127 1 22.7679526017 11.3672154827 3.01986872897
2129 1 23.5012853903 11.3663177026 0.252494515485
1651 1 23.50136137 8.50910881109 0.252953964894
1682 1 27.2376593815 9.93823856641 2.72281719634
1683 1 26.2360216484 8.5103577576 0.980041899166
1715 1 28.973116197 8.50940564238 1.70715318158
2161 1 26.2348456984 11.3674753121 0.978233501932
2193 1 28.9700066313 11.3643891409 1.70288019802
1714 1 29.9736083043 9.93672036136 3.44868353701
1716 1 30.7083118415 9.93759916305 0.689978481012
1747 1 31.7104620553 8.51209261594 2.44029700313
2225 1 31.7103954313 11.3608175741 2.43240218694
1748 1 33.4513685502 9.93537226542 1.42520045575
1778 1 34.4568874353 8.51466372715 3.17957701178
1779 1 36.2033408171 9.92764896743 2.15824379296
2256 1 34.4616578476 11.3548731378 3.16642730267
2258 1 35.1950718878 11.3524473719 0.40827783734
1780 1 35.1876402574 8.50894849572 0.418777178244
1810 1 38.9536201309 9.92502598967 2.88775292581
1811 1 37.9501017209 8.50217630614 1.14104508847
2289 1 37.9442268248 11.3373221327 1.1345345565
1812 1 39.6875535211 9.91129154701 0.0956695812301
2321 1 40.6763316416 11.3429411551 1.86992598833
1843 1 40.6929717477 8.50784703768 1.84297337718
1874 1 43.3087522527 8.45415502495 2.5824583554
1844 1 42.3787453117 9.9462199292 0.821346885093
2352 1 43.3208609309 11.39211026 2.52482986599
1842 1 41.704684937 9.89240781396 3.62875199507
6302 1 46.6501758918 8.31449347239 0.460672990664
6695 1 44.8098672575 9.75391997687 1.46739957814
6693 2 46.5848904597 10.7890754733 0.836287468256
6812 1 48.1177771221 11.7312919362 2.10177216243
6334 2 48.4911258198 8.45675744816 2.01446028248
6333 1 49.8127642036 10.0535628881 2.97738509854
6335 1 48.8767437266 9.94686024667 0.226676023129
6367 1 50.8376611252 8.52856993192 1.32240602396
6845 1 50.7470587925 11.4409393913 1.23344459851
6366 1 52.5000350427 10.0221699229 2.3201063857
6398 1 55.2864133602 9.998802756 1.61975524797
6399 1 53.5478330367 8.53935929757 0.611992876989
6877 1 53.5740421291 11.4346112009 0.609482465486
6875 1 54.2552804801 11.428359552 3.34196526064
6397 1 54.2549444847 8.57810698609 3.34668406946
6430 1 57.0399144661 8.59935622892 2.6487166999
6431 1 58.0367670016 10.0180565753 0.899774086055
6908 1 57.0310699659 11.4242899675 2.64617772635
6429 1 58.7564849412 10.0162130367 3.66822848605
6462 1 61.4797651796 10.0195302078 2.93625024032
6463 1 59.7567619248 8.59050063446 1.92328522412
6464 1 60.7496239836 10.0192829669 0.175303088628
6496 1 62.4717399432 8.58622392574 1.19039239064
6941 1 59.7571357657 11.4488431948 1.92059748494
6974 1 62.4757436682 11.449683091 1.19369374533
6495 1 64.1938437146 10.0109203984 2.20914515722
6528 1 65.1910747472 8.57429708565 0.447480310714
7006 1 65.1831492004 11.4471271203 0.46559693975
6526 1 65.9052131268 8.58110607087 3.23206341901
7004 1 65.915292356 11.4461049557 3.23276728006
6527 1 66.9003699898 10.0079689569 1.48033554361
6559 1 68.6109668156 8.57309893 2.51340521179
6560 1 69.6010377944 10.0042726016 0.763270308107
7037 1 68.6102765516 11.4415082982 2.51481834967
6591 1 73.0539027612 9.98545430573 2.80105898058
6592 1 71.3185082618 8.56589391814 1.78809265467
7070 1 71.3283680934 11.4301079468 1.7877300758
6558 1 70.3350052689 10.0009281571 3.53409295938
6432 1 72.317661491 9.98525994223 0.0436977150112
6623 1 75.7601474928 9.97190534169 2.06481980212
6624 1 74.0430503025 8.53865628763 1.05834246516
6654 1 76.7640298166 8.53796547651 0.325200593104
7102 1 74.0390000987 11.4219324016 1.06051763065
7132 1 76.7559467248 11.4170648881 0.33216425644
7130 1 77.4712357407 11.4206767546 3.09145560189
6652 1 77.4666859292 8.52987455661 3.07734426409
6653 1 78.4669545825 9.9781351302 1.34604568431
6674 1 80.1609357547 8.51967278436 2.37087594815
7152 1 80.1584722804 11.4371171185 2.36166144138
6675 1 81.1434963453 9.966246857 0.637705348989
6687 1 82.8291777114 8.52139988318 1.70682781178
7165 2 82.7330023502 11.3338251386 1.64116113742
6673 1 81.7574969226 9.96197767426 3.4097843058
6686 2 84.8387274778 9.42108049432 2.71903010454
6561 1 83.9240843959 9.88695401147 0.0773370110465
7103 1 87.9778679874 10.453146777 0.515496917744
6691 1 88.2982755096 8.84888786229 2.36027223257
6692 1 86.1826435861 8.7197178455 0.941332864833
7168 1 86.5249847643 10.7859623795 3.07879438889
6593 1 85.5743609826 11.3596311699 0.922266623295
1914 1 1.30931623356 12.5299766078 1.36456504314
2392 2 1.27869471332 15.8730311046 1.70352923706
2401 1 2.12491136915 14.019020673 3.27999242022
2403 1 2.86811804195 14.2034168515 0.661515894533
2402 1 3.93332515464 15.5614263168 2.43989457614
1924 1 3.96219053502 12.7805480213 2.40180402711
1941 1 6.67878201517 12.768669564 3.15593569344
2419 1 6.69266289538 15.6212729046 3.17553231667
2420 1 5.67380907482 14.2040796068 1.40412593552
1943 1 7.41534073727 12.7904856286 0.398387982769
2421 1 7.42297776817 15.6161183548 0.427934164119
1969 1 10.1539787709 12.7924533022 1.14637780851
2446 1 8.42123759882 14.201596858 2.16879046375
2447 1 10.1385224513 15.6416977508 1.15961235566
2477 1 11.1488478855 14.2159825844 2.9129433305
2000 1 12.8709738024 12.7973395886 1.87469248136
2478 1 12.8616635473 15.648332309 1.88537606503
2509 1 13.8537831396 14.2351876533 3.62193490447
2511 1 14.5919821566 14.2226287479 0.853699428726
2479 1 11.8708239053 14.2218815621 0.127648165071
2032 1 15.5830397168 12.7934085093 2.59429957141
2063 1 18.3003764608 12.7963629981 3.31669439217
2510 1 15.5796192737 15.648398213 2.60230388154
2541 1 18.2979802763 15.6445568267 3.32402936677
2542 1 17.3084190954 14.2205646261 1.57437951257
2065 1 19.0423203025 12.793586002 0.547621078924
2097 1 21.7688629219 12.792924291 1.27421692971
2543 1 19.0398870287 15.6465943278 0.551576517366
2574 1 20.034764646 14.2199946513 2.2978661453
2575 1 21.7675564045 15.6449878913 1.27675128731
2128 1 24.5025629151 12.7945591928 2.0018874219
2605 1 22.767230033 14.219909923 3.02331284319
2606 1 24.5035083441 15.6442766329 2.00523989558
2607 1 23.5016337378 14.2198586526 0.254307195889
2160 1 27.2377110336 12.7946131173 2.72520331311
2638 1 27.2331481319 15.6336384014 2.71784103437
2639 1 26.2353982724 14.2195188336 0.981047264067
2671 1 28.9677605363 14.2175065773 1.70681392325
2192 1 29.9692819807 12.7892454939 3.4461904319
2194 1 30.7071939527 12.7864996156 0.68516423047
2670 1 29.9750678115 15.6277052438 3.44175822354
2672 1 30.7034116802 15.6307796244 0.686272209627
2703 1 31.7058450733 14.2064378767 2.42965979533
2226 1 33.4536523468 12.7798875354 1.41823553601
2257 1 36.2094341098 12.7727380966 2.15184004833
2704 1 33.4497528682 15.6216521704 1.41689690434
2734 1 34.4603221507 14.1974235606 3.16048450392
2735 1 36.2073387365 15.6162752118 2.1518175577
2736 1 35.1976879296 14.2000338526 0.40644527547
2288 1 38.9493389781 12.7633873855 2.89066020422
2766 1 38.9739146852 15.6346301925 2.88119860643
2767 1 37.9591840147 14.1950007851 1.13804339063
2768 1 39.6944866259 15.6446944795 0.145910743295
2290 1 39.6788320576 12.7365193265 0.112124697428
2799 1 40.6621508843 14.1763105024 1.89432281173
2322 1 42.3726498198 12.7905642164 0.824359992705
2800 2 42.3112637479 15.4462784777 0.879266656343
2830 1 43.6639981378 14.2742281736 2.48426107954
2320 1 41.7247896091 12.8137573676 3.59835235211
2798 1 41.8046152762 15.6355364673 3.55047107435
2865 1 44.2745283319 14.1019061715 0.0172678898804
7259 1 45.5454816372 12.7770405896 1.79375419359
6780 1 45.9613894386 15.6416830747 1.78422913317
7290 1 48.0694912837 14.258127312 1.97231181903
6811 1 49.9403390885 12.9174200581 2.94708083235
6813 1 49.0769698223 12.9102001189 0.136183830203
7323 1 50.7775934072 14.3409852538 1.15817258597
7291 1 48.7553538032 15.7160204061 0.226509620472
7289 1 49.8578734452 15.7233882354 2.92061522308
6844 1 52.4969874638 12.8470493095 2.30219468794
6876 1 55.3283199372 12.8313854272 1.63874511889
7322 1 52.5571110742 15.7137984609 2.30873797514
7355 1 53.6637761889 14.2117707968 0.650973109447
7353 1 54.2672068109 14.2793712581 3.32380717402
7354 1 55.3502498389 15.7285158774 1.64983770022
6909 1 58.0254121999 12.8680215371 0.90003741933
7386 1 57.0368635885 14.2871924371 2.64773303684
7387 1 58.0131218842 15.7321345207 0.898272055537
7385 1 58.7505153758 15.7318249277 3.65917086717
6907 1 58.7526577856 12.8665125419 3.66282296367
6940 1 61.483077591 12.8840407048 2.93816053219
6942 1 60.7517686003 12.8832595226 0.17725692753
7418 1 61.4835292487 15.7392907872 2.93788163353
7419 1 59.7503808417 14.306415384 1.91928146603
7420 1 60.7452361856 15.7370044867 0.177346606942
7452 1 62.4900925717 14.3202092273 1.20018088141
6973 1 64.203082782 12.8808487657 2.22121394859
7451 1 64.2554449617 15.7568132741 2.22030416655
7484 1 65.1557915957 14.2820455441 0.452539260264
7482 1 65.9265188464 14.3099083712 3.23243455412
7005 1 66.9010286213 12.8765959882 1.48767681469
7038 1 69.6044106179 12.8722690478 0.779885697757
7483 2 66.8649821629 15.5868319034 1.35227715998
7515 1 68.6005169187 14.3040365569 2.51957884734
7516 1 69.5512047664 15.7474117259 0.806298482871
7069 1 73.0445071238 12.8672025794 2.80595139763
7547 1 73.0382747869 15.7321958437 2.80823592056
7548 1 71.3049237698 14.3128801986 1.79726530333
7514 1 70.2678716874 15.7489763128 3.53322064944
7036 1 70.3267341046 12.8695692149 3.52773177754
7388 1 72.3148435935 15.7292772759 0.0528078656751
6910 1 72.3189381268 12.869522328 0.048370522354
7101 1 75.7586146608 12.858391071 2.07785229791
7579 1 75.7651872206 15.7276291661 2.08213222481
7580 1 74.0402982166 14.2966137112 1.06423031914
7610 1 76.7547495502 14.2909413547 0.335266737602
7608 1 77.4759521231 14.2973716176 3.10251189555
7131 1 78.4666029244 12.8636976954 1.35417188302
7609 1 78.4809129572 15.7236190484 1.35483629063
7630 1 80.1873241697 14.3002926869 2.37778173965
7153 1 81.1586990951 12.8640904452 0.636825259161
7631 1 81.1523036906 15.7382882289 0.611864614208
7643 2 82.7503402503 14.4566431321 1.67608654676
7164 1 84.5137810911 12.9083706907 2.57009526928
7629 1 81.9118717146 15.7470030274 3.42439610777
7151 1 81.8843426384 12.856997744 3.38150212923
7642 1 84.5946934581 15.7247165099 2.58734520738
7039 1 83.9308552895 12.9051320375 0.0906574044401
2393 1 88.6267512681 14.4248136776 0.325573586729
7169 1 88.3855146457 14.1856617787 2.96449082543
7170 2 87.5883888267 12.4975924687 1.36982291069
7647 1 87.3843435733 16.0465254682 1.87459116626
7648 1 85.9982918511 14.2198689525 1.00761647055
7646 2 86.1283993426 14.3795774469 3.53361334673
2870 1 1.37119639676 18.5180120597 1.93297269074
3359 1 3.21726329269 19.9258682983 0.865380113412
3348 1 2.35208319222 19.8930200809 3.65828882598
2881 1 3.00541156705 17.0717379666 0.763838847026
2879 1 2.3937665212 16.9399960533 3.58864532617
2880 1 4.0231657122 18.447610819 2.54071091834
2897 1 6.6451224587 18.5078493106 3.21392729404
2898 1 5.68665117036 17.0373335413 1.45129433716
3376 1 5.66552379177 19.9356466871 1.45412805247
2899 1 7.41004145206 18.5034745545 0.450648593297
2924 1 8.40167161478 17.0731480412 2.18536076455
2925 1 10.1265698883 18.5045540898 1.1698906116
3402 1 8.37706637877 19.9415341487 2.20425048051
3433 1 11.1189665243 19.9311716018 2.91642877934
2955 1 11.1303951108 17.0719131088 2.920124903
2956 1 12.852781812 18.5023622036 1.88605989685
2987 1 13.8528313442 17.0747259551 3.6372908999
2989 1 14.5844051701 17.0760068768 0.855909324207
3465 1 13.8483654746 19.9337189166 3.63022245949
3467 1 14.5799930515 19.929555128 0.85014490505
2957 1 11.8595158513 17.0733840013 0.136511691348
3435 1 11.8617625121 19.9240840467 0.130237695873
2988 1 15.5772406351 18.5040756202 2.60273062054
3019 1 18.3013760712 18.4999351669 3.32331996252
3020 1 17.3077486692 17.0752047734 1.57653836822
3498 1 17.3046223724 19.9305633505 1.57088068742
3021 1 19.0372448462 18.5001071768 0.550465790337
3052 1 20.0323038668 17.0710033482 2.30018096897
3053 1 21.76630595 18.4949544702 1.27722986029
3530 1 20.0336983842 19.9245356815 2.29709734076
3083 1 22.7648351916 17.0677180668 3.02468079667
3084 1 24.5036662144 18.4867538497 2.0068490722
3561 1 22.7673696816 19.916171398 3.02451612424
3085 1 23.501028689 17.0683173245 0.255852684258
3563 1 23.5004488466 19.9163188047 0.257179002873
3116 1 27.2334027222 18.4855680477 2.72014846505
3117 1 26.237148408 17.0620541986 0.986189723809
3149 1 28.9665072792 17.054426729 1.70574652699
3595 1 26.2352205584 19.9069714368 0.986750023372
3627 1 28.9658007642 19.8958166257 1.71397958237
3148 1 29.9737484193 18.4747649297 3.44426762264
3150 1 30.6995841347 18.4711854327 0.691438658628
3181 1 31.6987474872 17.0448394088 2.43119145842
3659 1 31.698328318 19.8898003684 2.43488256495
3182 1 33.4425598988 18.4635999509 1.42292549278
3212 1 34.4550784427 17.0357262625 3.15858154981
3213 1 36.1991337012 18.4606498047 2.16094447734
3690 1 34.4468822718 19.8832653874 3.16246142192
3214 1 35.1919014354 17.0441037318 0.412471443908
3692 1 35.1799907778 19.8885270615 0.425162159031
3244 1 38.9865854667 18.4576635624 2.89012458612
3245 1 37.9469883607 17.0418438874 1.15444198674
3723 1 37.9399796234 19.880179178 1.16685333773
3246 1 39.6809031538 18.4475271646 0.177670392743
3277 1 40.7404822011 17.0471103092 1.89231795739
3755 1 40.7265934193 19.9070493964 1.90169751469
3278 2 42.3629280959 18.5765816084 0.873471977078
3786 1 43.550746302 19.8112212086 2.71919372585
3308 1 43.6749219324 17.150439334 2.58025327244
7171 1 44.1990339903 16.6098676388 0.300389467124
3276 1 41.7641957337 18.4322171596 3.6247228477
7735 1 44.5815820085 18.9369890585 0.324626094727
7737 1 45.9418958287 18.2770058209 2.00118495468
8246 1 47.988499854 20.0726859175 2.13108644448
8212 2 46.257355564 19.9223195108 3.58985992434
7734 1 48.0900073321 17.1358289888 2.02083767252
7767 1 49.8071451432 18.5633831169 2.97993047251
7801 1 50.8267992094 17.1085539118 1.22485699203
8279 1 50.8122772538 20.0108055457 1.42228043773
7769 1 49.1743142724 18.5769624682 0.245119508236
7800 1 52.5380063779 18.5719076473 2.318966756
7832 1 55.3008487375 18.618540916 1.62310429597
7833 1 53.6368401012 17.2215254614 0.637300577775
8311 1 53.5447037046 20.0491793986 0.611801578772
7831 1 54.2731731488 17.1517985559 3.32295159185
8309 1 54.2636693313 20.0079904262 3.34115283153
7864 1 57.0322500883 17.1716644571 2.64476189899
7865 1 58.0011380449 18.5889757447 0.887953745785
8342 1 57.0284758753 20.02591951 2.63533105801
7863 1 58.7583214255 18.5929885719 3.66285946018
7896 1 61.4770656626 18.5855296119 2.93656410321
7897 1 59.7444711644 17.163190172 1.916526572
7898 1 60.7348844804 18.5722579037 0.163810824263
7930 1 62.4895922326 17.1622471343 1.20255498637
8375 1 59.7129808532 19.9867492926 1.89480831195
8408 1 62.4881234149 19.971570683 1.16964458448
7929 1 64.2400089971 18.5712155812 2.22782248525
7962 1 65.1974771033 17.1611811355 0.474606140801
8440 1 65.13545063 20.0387205334 0.46055542977
7960 1 66.0290763509 17.1636002568 3.20555259805
8438 1 65.8971928083 20.0163313863 3.23632433738
7961 2 66.8539003696 18.7313840415 1.35553664433
7993 1 68.4861977485 17.157813822 2.54940550323
7994 1 69.5498343509 18.5587784085 0.806638292287
8471 1 68.5946733398 20.0026708192 2.52072362015
8025 1 73.0413026813 18.5750694647 2.81088152426
8026 1 71.283299375 17.1536377927 1.80353690874
8504 1 71.3069075921 19.9875990639 1.79784526333
7992 1 70.2686149119 18.5618308217 3.53444416939
7866 1 72.3148320462 18.5730909854 0.0540743623805
8057 1 75.7748716212 18.5820542992 2.08375977586
8058 1 74.0436413089 17.154836523 1.06506387137
8088 1 76.7672673143 17.1526124876 0.332922857309
8536 1 74.0503545869 20.0026968406 1.06515679845
8566 1 76.7806815102 20.0087984521 0.331212993606
8086 1 77.4897754737 17.1577397344 3.10879484262
8564 1 77.5066463314 20.0004577029 3.11133083537
8087 1 78.4912355408 18.5821284201 1.34857731338
8108 1 80.1932974608 17.1657764333 2.3802957911
8586 1 80.2320192148 19.9868426145 2.36724021836
8109 1 81.2166846674 18.5652955876 0.613029882896
8121 1 82.8994397597 17.1486622498 1.63519264856
8599 1 82.9678463281 19.9798495507 1.63541797856
8107 1 81.9553015032 18.5517159663 3.40434673009
8120 1 84.6450556018 18.51711262 2.68725581929
3349 2 88.6034711237 19.2162159273 0.360679013833
8125 1 87.2892698094 18.5562941855 2.04709586645
8126 1 85.6267649792 17.1328387291 0.889161146336
8604 1 85.6289707388 19.9748268469 0.898910763084
3837 2 1.60668818538 21.2509869163 2.04439832861
3882 1 2.93825295913 22.8314879917 0.772109618403
9081 2 1.50587361753 24.4445671932 2.28423862453
3835 1 2.2365818847 22.7449616115 3.63797570345
3836 1 4.03698761793 24.2237937955 2.38565726234
3358 1 4.01471056202 21.4390451028 2.56665353886
3375 1 6.60555879645 21.397482721 3.24091056612
3853 1 6.7079608144 24.1628306745 3.19217949267
3854 1 5.69844540671 22.7828567494 1.44715358004
3377 1 7.4316025074 21.3659013818 0.449583796213
3855 1 7.4534593096 24.1870594567 0.437676125287
3403 1 10.1381591537 21.3461294515 1.16198744164
3880 1 8.41670047318 22.7654100745 2.1922859619
3881 1 10.1534484387 24.1941622418 1.17079733629
3911 1 11.1188616942 22.7801391275 2.91698814799
3434 1 12.8512287092 21.3553578952 1.88042380633
3912 1 12.8505306693 24.2118188392 1.87236593434
3943 1 13.8476085629 22.7854890872 3.62350396714
3945 1 14.5753230204 22.7861219533 0.839587744027
3913 1 11.8691351986 22.7751328203 0.124848710797
3466 1 15.5752551076 21.3594426412 2.59440548977
3497 1 18.3043174824 21.3559978585 3.31618281885
3944 1 15.5747671847 24.2128418024 2.58728472185
3975 1 18.3031656485 24.2111613362 3.30930508003
3976 1 17.3025151492 22.7848613403 1.56361950258
3499 1 19.0342044958 21.3544578206 0.545492031204
3531 1 21.7665921866 21.3474006963 1.27560346624
3977 1 19.0302318066 24.2116609744 0.540117103406
4008 1 20.0338940562 22.7799936075 2.29168747633
4009 1 21.7650576098 24.2037669031 1.27330529219
3562 1 24.5025114634 21.3377748052 2.00616105267