ITEM: TIMESTEP
2000
ITEM: NUMBER OF ATOMS
9560
ITEM: BOX BOUNDS pp pp pp
0.0 88.6430375159
0.0 28.55
0.0 44.3215187579
ITEM: ATOMS id type x y z
2 1 0.809289969722 0.732946478951 0.941436607237
491 1 2.9222590575 2.58966587872 0.60909193454
489 1 1.73684471531 2.5031250604 2.89618451685
481 1 0.143448806209 3.08605872218 0.362526517609
11 1 2.42642240785 0.104954929773 3.31859501948
13 1 3.17991653077 0.0597492161976 0.634590124159
12 1 4.08924176489 1.51667812729 2.40746953961
29 1 6.77801132189 1.40876449404 3.11729420105
508 1 5.78745226737 2.81625847859 1.3519906262
30 1 5.76658358648 0.00501256431842 1.36730361495
31 1 7.48061915077 1.38991920631 0.340284331291
57 1 10.1619393007 1.38318047375 1.09831843787
534 1 8.45343679182 2.8269955948 2.10895638284
565 1 11.1460221911 2.82282380938 2.85416590684
88 1 12.8687500139 1.3874947547 1.8254616227
597 1 13.8576925654 2.81608509921 3.57891049614
599 1 14.589328554 2.80862182271 0.78959227127
567 1 11.8671442565 2.81413461483 0.0789512492838
120 1 15.5832964183 1.39094590346 2.54221441583
151 1 18.3022504271 1.37977309549 3.27658231909
630 1 17.3078816998 2.80309328987 1.51511225298
153 1 19.043291187 1.36222055541 0.535876423029
185 1 21.7658453981 1.37247450058 1.25504820211
662 1 20.0376246816 2.80167904428 2.26885506416
216 1 24.503522436 1.37154631092 1.98576088866
693 1 22.7711225781 2.80099946943 3.0003649886
695 1 23.4991767272 2.79839601177 0.240929736403
248 1 27.2489545026 1.37135659545 2.71152024133
727 1 26.2381474235 2.79674732793 0.969269804883
759 1 28.9879836597 2.79405345045 1.69359901167
280 1 30.0016398713 1.3712042523 3.43439134714
282 1 30.73383937 1.36639938609 0.679572809443
791 1 31.7415253302 2.79411522821 2.41512206937
314 1 33.4861349337 1.3751011264 1.39924902216
345 1 36.2735952082 1.36363138811 2.0974191818
822 1 34.5016574812 2.79525884357 3.1278522403
824 1 35.2555759881 2.78813588594 0.383364219426
376 1 39.078088562 1.41731022319 2.77355481077
855 1 37.9367446925 2.92157175083 1.16163501643
378 2 39.6141039258 1.88143538092 0.150295451671
887 1 40.7947422631 3.09152055349 1.86212288036
410 2 42.7106895389 1.86374357762 1.03354935743
918 1 43.6237811475 3.22118944352 2.74038834005
408 1 41.6815975707 1.43820172323 3.53694148204
4866 1 45.0173251095 1.41794049463 1.76273175669
5347 1 45.6039758488 4.01266401432 1.31330252501
5344 1 47.6006195664 2.68842006225 1.86277205287
4786 2 46.3595993787 1.91451794833 0.0864232541174
9168 2 45.6149904607 0.107980392549 3.6066922156
5411 1 50.0222600924 3.11853037033 0.975875097947
4899 1 49.9122536896 1.65843229622 2.97972155125
4933 1 50.7565620412 0.13076219838 1.31634239246
4901 1 48.8045988105 1.18846611124 0.384639960802
4932 2 52.1366648957 1.9985515754 1.80509026478
4964 1 55.3614254165 1.44852379554 1.54879032273
5443 1 53.6534946666 2.91259391483 0.456140384955
5441 1 54.2305050803 2.80562512043 3.2540756169
4963 2 54.4372497783 0.013978262149 3.28034138102
4965 1 53.4452448672 0.0909798565239 0.683089844545
4997 1 57.9892664637 1.44441753706 0.877201667095
5474 1 56.9933597504 2.88287017191 2.61229963445
4995 1 58.7220773154 1.44326855291 3.65306165782
5028 1 61.4512606135 1.42849748676 2.93160385562
5030 1 60.7249867413 1.43686290508 0.169984862894
5507 1 59.7345423509 2.85996819461 1.90997085202
5540 1 62.4597499399 2.85682113659 1.19122360204
5029 1 59.7242273422 0.0128214469021 1.91440536088
5062 1 62.4508494041 0.00990094361153 1.20592624423
5061 1 64.1782455956 1.42673267133 2.22212613274
5572 1 65.1751544425 2.85331139191 0.486447184352
5570 1 65.8966641334 2.85369021262 3.24971656205
5092 1 65.8959322458 0.00724918173134 3.25433854682
5094 1 65.1729144985 0.00380264681437 0.491647300135
5093 1 66.900635472 1.42908062455 1.51128472003
5126 1 69.6304206887 1.42567592524 0.788043260719
5603 1 68.6314897191 2.85277749012 2.52987774845
5125 1 68.6307033944 0.000882827832252 2.53432115115
5157 1 73.097515283 1.43635809796 2.83233987613
5636 1 71.3538099189 2.85453198298 1.81008608762
5124 1 70.3635684331 1.42629961289 3.55741035878
4998 1 72.3643443667 1.43537270992 0.0702761289778
5158 1 71.3669649145 0.00341316639108 1.81299407474
5189 1 75.8156437253 1.44462063133 2.1102045766
5668 1 74.0831987383 2.87822122381 1.08932231313
5698 1 76.8041234826 2.87656466423 0.375022738855
5696 1 77.5275308919 2.87424928667 3.13452735208
5218 1 77.547719876 0.00717776957378 3.15483769441
5190 1 74.0968298214 0.0029377433769 1.09352750451
5219 1 78.534655466 1.43681334798 1.40625560937
5718 1 80.2735327223 2.85324130306 2.43440707082
5240 1 80.2762796907 0.0242114312547 2.44711848965
5241 1 81.2716581451 1.4256512439 0.690493130183
5731 1 83.0393745041 2.8444942928 1.69419652318
5239 1 82.0301478922 1.46607853026 3.47772782142
5252 1 84.7496501883 1.48966571692 2.76818509755
5253 1 83.0306940265 0.0339623458034 1.70688173219
1 1 87.5591228141 1.65502656078 2.05001272859
5736 1 85.7822961166 2.72442015556 0.653866816094
5258 1 85.790287606 0.138487782725 0.962664751013
480 2 1.62629042737 4.363929886 1.42426603114
958 1 1.23665171698 6.95592569784 1.71378155099
969 1 3.18620941199 5.72527490393 0.663347479365
967 1 2.37367356989 5.53687538571 3.33992665638
479 1 0.18605596931 4.47759399414 3.10584299813
490 1 4.01232083221 4.08896949308 2.37909606298
968 1 4.01844181035 7.09035536046 2.47372562245
507 1 6.73325711395 4.2415516813 3.1302283309
985 1 6.65855433462 7.08338864197 3.1666820968
986 1 5.69062261342 5.63762051297 1.3865978213
987 1 7.40900187556 7.09962103174 0.379141403364
509 1 7.45191072705 4.24620609553 0.34098877654
535 1 10.1556447382 4.255882398 1.1066156431
1012 1 8.42014240586 5.68379244975 2.12641208454
1013 1 10.1411346447 7.11058931521 1.12431712216
1043 1 11.1382088043 5.68227871141 2.87022776211
566 1 12.8671621171 4.24344111165 1.82932444756
1044 1 12.8665906544 7.09584466429 1.84336793203
1075 1 13.8575482072 5.67251130319 3.58601029495
1077 1 14.5990275513 5.64673077211 0.799024555005
1045 1 11.8679150378 5.67668929328 0.088382807593
598 1 15.5837475381 4.22779266153 2.54384302561
629 1 18.3040787179 4.22967955874 3.27757240116
1076 1 15.5826568573 7.08765025352 2.5600380604
1107 1 18.3014285721 7.08648525425 3.2834670035
1108 1 17.3019032698 5.64114437861 1.52046653427
631 1 19.0469241455 4.23874662211 0.537619818398
663 1 21.7671060925 4.22789343248 1.25457935704
1109 1 19.0323125533 7.07686466646 0.520313335483
1140 1 20.03651052 5.65860028237 2.27024673647
1141 1 21.7679376003 7.08546365013 1.25586012857
694 1 24.5042184763 4.22693160779 1.98475172477
1171 1 22.771079268 5.65859256642 3.00073648794
1172 1 24.5046144563 7.08345620729 1.98550624975
1173 1 23.4991438288 5.65402979152 0.239890294236
726 1 27.247421117 4.22261524179 2.71037135335
1204 1 27.2439382294 7.07782309007 2.71143953649
1205 1 26.2377299381 5.65052787513 0.968456921059
1237 1 28.9819770616 5.64536073425 1.69331372687
758 1 29.9945221542 4.21991230411 3.434604508
760 1 30.7266836598 4.21592587672 0.676197921964
1236 1 29.9820970684 7.073999549 3.43680293421
1238 1 30.7126817379 7.0693544822 0.675946798048
1269 1 31.7263752118 5.64468054196 2.41802499916
792 1 33.4817619442 4.21913748644 1.39887496906
823 1 36.2061703426 4.27305426245 2.13971863277
1270 1 33.4439308285 7.08042808468 1.40351194116
1300 1 34.4616015577 5.66895390929 3.14913051379
1301 1 36.1958701144 7.10291128406 2.12932369395
1302 1 35.1887001662 5.6721670005 0.389786328804
854 1 38.9858480976 4.33858731198 2.89660374018
1332 1 38.9757619436 7.11828294425 2.86116250566
1333 1 37.9609723363 5.71167806485 1.1204442397
1334 1 39.7260572002 7.14087985185 0.0599067626189
856 1 39.72402307 4.42066202012 0.131836150776
1365 1 40.8118282384 5.74967787713 1.83602220343
886 1 41.6813726772 4.33462672904 3.62282354357
1396 1 42.682325438 4.38551166075 0.743410290821
1364 1 41.684944652 7.22585281053 3.54951292422
1366 1 42.4907500749 7.1856110881 0.715985409444
6217 1 43.6118231193 5.70269818402 2.40346409185
5346 2 46.0728194743 6.16054884174 1.72155723341
5822 1 48.3298266555 5.03643733632 1.59049799236
5377 2 50.0827908373 4.34410856075 3.10913694035
5855 1 49.8015244797 7.05498402001 2.94986726143
5889 1 50.8767964648 5.76458698339 1.24518464985
5857 1 49.1289901576 7.26414081972 0.288712121598
5410 1 52.5176102155 4.30646721996 2.19819062474
5442 1 55.2470349525 4.31730625167 1.56185166901
5888 1 52.5582489149 7.17579648829 2.24677433601
5920 1 55.2697176736 7.12872738246 1.5665506085
5921 1 53.4538091619 5.71483565329 0.45696361053
5919 1 54.2514592692 5.70770087116 3.27735874066
5475 1 58.003043587 4.28939359672 0.871126981814
5952 1 57.0071777636 5.709595825 2.61160609881
5953 1 58.0253000725 7.13651332377 0.884018181701
5473 1 58.7383446144 4.28316711131 3.64891301493
5951 1 58.7480783832 7.12764864198 3.6517261579
5506 1 61.4651128325 4.27977004893 2.92492526816
5508 1 60.7377436741 4.2823652978 0.166447987769
5984 1 61.4809382518 7.13081867747 2.93009888286
5985 1 59.7470409791 5.70317350108 1.90800909989
5986 1 60.7513154504 7.13723410886 0.16996967752
6018 1 62.4729603144 5.70280111583 1.19226804391
5539 1 64.1906316811 4.2871847433 2.20970410431
6017 1 64.1962625115 7.13049795681 2.21395683752
6050 1 65.1979294832 5.71554349968 0.458803049867
6048 1 65.9061850161 5.70069735321 3.24324518156
5571 1 66.9036856013 4.2794707226 1.49950854829
5604 1 69.6221894617 4.28340486309 0.77933472026
6049 1 66.9150295569 7.13498740307 1.48369912154
6081 1 68.6270299566 5.70479597077 2.52700286462
6082 1 69.6096072429 7.1344855584 0.771031819397
5635 1 73.0698068339 4.27128348365 2.84502808602
6113 1 73.0629208784 7.13954392018 2.8401850814
6114 1 71.3390897033 5.70818086114 1.80653716838
5602 1 70.3584845003 4.27870071873 3.55358834595
6080 1 70.353310976 7.13001461413 3.55140162583
5476 1 72.3258358551 4.2774594919 0.0564579055239
5954 1 72.319716193 7.14384855987 0.0538373482209
6146 2 73.9334321939 5.70831470965 1.12052896418
5667 1 75.7983900559 4.30609061803 2.09053410467
6145 1 75.7957796591 7.10282045677 2.0758028674
6176 2 76.9357198291 5.69207311237 0.344352232584
6174 1 77.5257815891 5.70096842336 3.11921650167
5697 1 78.551925821 4.2619688151 1.40719922423
6175 1 78.5391488036 7.13692459086 1.39570167169
6196 1 80.2563741357 5.68826398606 2.42938840846
6197 1 81.2324160427 7.13448365408 0.694097372951
5719 1 81.26248536 4.27256640562 0.687960008525
5730 1 84.7288115334 4.19484164353 2.8106936349
6208 1 84.6772287531 7.14794119424 2.76857297835
6209 1 82.989024288 5.68514723628 1.71619611597
6195 1 81.9583704329 7.09483703563 3.45844097635
5717 1 82.0125726447 4.25423777764 3.46728172239
5735 2 86.9632012309 4.11260025108 1.98543774398
6213 1 87.4431827663 6.66451501258 1.74754494791
6214 1 85.4022047247 5.73497717889 1.04502012954
1436 1 2.97086107049 8.48418772906 0.745400048828
1925 1 2.95288504203 11.3656397185 0.729284981911
1915 1 1.41279666341 9.9254429412 1.8370553272
1445 1 2.11984984176 8.32680251902 3.46454149903
1923 1 2.37482140013 11.1633421948 3.68797721885
1913 1 0.126292915639 11.582513833 3.550441365
1437 1 0.112173552864 8.35255440508 0.0178145077199
1446 1 3.93946451691 9.86019697349 2.50213081076
1463 1 6.64693404679 9.92919904559 3.19575582262
1464 1 5.69829155621 8.52269380446 1.42745360172
1942 1 5.6565312888 11.3269026791 1.44118392477
1465 1 7.39616072122 9.95743498772 0.391148844475
1490 1 8.39101032977 8.52348083709 2.14959635441
1491 1 10.1273717171 9.94729024845 1.13748253989
1968 1 8.38499263884 11.3536216699 2.17094657983
1999 1 11.1253983004 11.3651639119 2.89800945528
1521 1 11.1333274222 8.53133636474 2.88476903306
1522 1 12.8568150601 9.94476385932 1.85392183894
1553 1 13.8581706841 8.53024828921 3.59879785055
1555 1 14.5880158327 8.51389211635 0.818387553502
2031 1 13.8391044237 11.3594758861 3.58769746709
2033 1 14.5795295149 11.3681185035 0.828338941277
1523 1 11.8636993369 8.52300564874 0.0995151997099
2001 1 11.8536066449 11.3622354955 0.109117170965
1554 1 15.5793057675 9.94824879669 2.56992509998
1585 1 18.3049992122 9.94671696007 3.2913115565
1586 1 17.3057342874 8.51181454667 1.54044571537
2064 1 17.3039354891 11.3716394956 1.54963879906
1587 1 19.034750269 9.94053793651 0.527272629731
1618 1 20.0349988757 8.5141036551 2.27167970824
1619 1 21.7686277684 9.94157172797 1.25814587358
2096 1 20.037622509 11.3716382353 2.27641172673
1649 1 22.7726247419 8.51638773858 3.00308991622
1650 1 24.5069012124 9.94276741817 1.98902475369
2127 1 22.7759985911 11.3743443218 3.006285477
2129 1 23.5012690311 11.3689406418 0.244836314541
1651 1 23.4998058896 8.51115693331 0.241131710559
1682 1 27.2413989454 9.93913176139 2.71518022611
1683 1 26.2367347654 8.5078972865 0.969902209695
1715 1 28.9731516938 8.50292978826 1.69457570325
2161 1 26.2381317267 11.3708957961 0.975393255445
2193 1 28.965775632 11.366905364 1.69705638934
1714 1 29.9686687485 9.93645478535 3.43994342881
1716 1 30.6977975208 9.93073334213 0.67685910614
1747 1 31.7036499139 8.50469802408 2.42103647306
2225 1 31.6885501436 11.3655179261 2.42384823315
1748 1 33.4271418884 9.93011957662 1.40258888254
1778 1 34.4397688525 8.51159298861 3.14693432403
1779 1 36.1664956559 9.92680400493 2.12532436052
2256 1 34.4217776309 11.3562970294 3.15145528632
2258 1 35.1483343408 11.3510677377 0.384035154739
1780 1 35.1721512894 8.50002730479 0.380377861426
1810 1 38.9170029398 9.94686337847 2.84436019374
1811 1 37.9367852395 8.51635389415 1.09779025627
2289 1 37.880516691 11.339400234 1.09377576752
1812 1 39.6585050589 9.94538775032 0.0443573046941
2321 1 40.5990441461 11.3982686264 1.80658972838
1843 1 40.6774219701 8.5398613633 1.79744937593
1874 1 43.440420394 8.63563116295 2.44658100525
1844 1 42.2774886287 9.98810686314 0.806493728419
2352 1 43.2534051228 11.515100268 2.41377206943
1842 1 41.6633112784 9.97826093945 3.55503815043
6302 1 46.4490450782 8.17532906846 0.706196100031
6695 1 45.1915412795 10.2008306696 1.56189621526
6812 1 47.9729024123 11.3399868179 2.33284692392
6693 2 46.7002351059 11.7751132685 0.34337732197
6334 2 48.3974431199 8.735711912 2.05157474445
6333 1 49.9204679986 10.0853978188 3.0838454139
6335 1 48.6269962118 10.0463538994 0.205181359861
6367 1 50.8266863195 8.66038651871 1.28244339077
6845 1 50.8196455429 11.4206867752 1.28095906008
6366 1 52.5811014501 10.0152537758 2.33743568856
6398 1 55.3157600474 10.00312838 1.61712245215
6399 1 53.5709640108 8.58790500877 0.582788087143
6877 1 53.6146320733 11.4625291906 0.635826212768
6875 1 54.3092805852 11.4305192554 3.36024117815
6397 1 54.3079531373 8.56159874538 3.32738268015
6430 1 57.0234007877 8.55421492367 2.62465127247
6431 1 58.0505142503 10.0061073891 0.904392005512
6908 1 57.0446469149 11.4233703395 2.64405637834
6429 1 58.756707939 9.98293287926 3.66202675831
6462 1 61.4865683335 9.99314826726 2.938178475
6463 1 59.7577689715 8.56171574135 1.91560717282
6464 1 60.7639295234 10.0013243433 0.17879489806
6496 1 62.4826057789 8.56399008945 1.18960673493
6941 1 59.7720609274 11.4289492752 1.92783142053
6974 1 62.4892749252 11.4306235078 1.20094148952
6495 1 64.2051399854 9.99037691756 2.21545775297
6528 1 65.2071761236 8.55801270858 0.453591025109
7006 1 65.1992956207 11.4329455059 0.477654429736
6526 1 65.9168799274 8.55937821311 3.24139268965
7004 1 65.9215350934 11.423751788 3.24806367849
6527 1 66.9157945917 9.99381249912 1.49285368534
6559 1 68.630125239 8.56213095534 2.52454719108
6560 1 69.6234761478 9.99492225443 0.775081985162
7037 1 68.6320497491 11.4241785106 2.52827630938
6591 1 73.077047125 9.97549255961 2.82051355715
6592 1 71.3405322622 8.55776464284 1.8033067393
7070 1 71.3523660343 11.4192007331 1.80374474539
6558 1 70.3542057703 9.98852857427 3.54987597391
6432 1 72.3452521551 9.97802259302 0.0605344152984
6623 1 75.7949570341 9.96489516621 2.0928159414
6624 1 74.0737914381 8.53465481156 1.07861469477
6654 1 76.8045697472 8.54614612651 0.350160769071
7102 1 74.0730541194 11.4102339844 1.08123924087
7132 1 76.7999548265 11.4008405548 0.352604416155
7130 1 77.510796149 11.4053311254 3.13254689126
6652 1 77.5081267151 8.53241746473 3.11670458738
6653 1 78.5133570185 9.97791541463 1.38305833083
6674 1 80.2346677674 8.55061759992 2.42588489361
7152 1 80.2223955977 11.4164132503 2.43124932514
6675 1 81.198063382 9.99425580982 0.684329839431
6686 1 84.7368395298 9.97300733624 2.62066982611
6687 1 82.9426213834 8.5312315134 1.75047538592
7165 2 82.8921435111 11.4344847755 1.78628282686
6673 1 81.9201789125 9.98108778309 3.44670962124
6561 1 83.7150177628 9.94910998429 0.0213398242271
7103 1 88.4388483745 11.1153855283 0.610883993636
6691 1 88.0502624123 9.02341637752 2.35117896338
6692 1 85.8686031669 8.4396317322 1.0169717047
6593 2 85.7928049472 10.6263283389 0.119027191267
1914 1 1.26934989387 12.6273821231 1.72915722236
2392 2 1.26438274536 15.2506702701 1.75235802489
2401 1 2.22961544708 13.9277524638 3.50662909827
2403 1 2.91987563471 14.101863862 0.695618372356
2402 1 3.84372210333 15.5851046382 2.48204699442
1924 1 3.97955359111 12.7135606959 2.47786207646
1941 1 6.62945818284 12.7637009953 3.19108100156
2419 1 6.65769111204 15.6266726266 3.17055413669
2420 1 5.62256239835 14.2004703738 1.4513675988
2421 1 7.37713551703 15.5761789952 0.452017261708
1943 1 7.37546856219 12.7615404828 0.425806453429
1969 1 10.1189794891 12.7760142911 1.1462868195
2446 1 8.38224876003 14.1844625885 2.17382109837
2447 1 10.1169954521 15.6068590303 1.15873415778
2477 1 11.116562447 14.2070823472 2.8944907627
2000 1 12.8468848266 12.7885124778 1.85966610902
2478 1 12.8313131149 15.6424301439 1.85581353895
2509 1 13.8314353757 14.2350701832 3.58725869686
2511 1 14.5693113267 14.216257346 0.833980920187
2479 1 11.8421797174 14.200764331 0.116419156974
2032 1 15.5719725444 12.7968851721 2.57434488209
2063 1 18.3033724764 12.7999199202 3.29602301948
2510 1 15.5674427912 15.6456903223 2.5783556376
2541 1 18.3005200361 15.6487338213 3.30159650448
2542 1 17.2995690948 14.22033426 1.5548708552
2065 1 19.0341261875 12.7952695336 0.531253551785
2097 1 21.7699881242 12.7976957771 1.26167043199
2543 1 19.0306909302 15.6459864184 0.534934110358
2574 1 20.035982817 14.2240702112 2.28029580555
2575 1 21.7672100478 15.6495793971 1.26404257515
2128 1 24.5112427581 12.8042277197 1.99384685738
2605 1 22.777509885 14.2304376194 3.00870500967
2606 1 24.5180957018 15.6605530939 1.99838038736
2607 1 23.5018445986 14.2255913849 0.249486629442
2160 1 27.2481625049 12.8133482108 2.72065811372
2638 1 27.2624927913 15.6758463927 2.72585329473
2639 1 26.246439858 14.2391777054 0.987912197169
2671 1 28.9618962865 14.2428341859 1.69904055073
2192 1 29.9544510776 12.8113533952 3.43942800392
2194 1 30.686437781 12.797203116 0.680095978375
2670 1 29.93632249 15.6764402013 3.43745458572
2672 1 30.6999251884 15.635594617 0.667180473537
2703 1 31.6686896423 14.2370484222 2.42993398737
2226 1 33.4101297329 12.7891914894 1.41016559868
2257 1 36.1424262283 12.7734177096 2.13329018144
2704 1 33.4054023649 15.6464520036 1.41038699053
2734 1 34.4082277461 14.214498211 3.15794045787
2735 1 36.1278679666 15.6313254743 2.13894761384
2736 1 35.1343299481 14.2077335381 0.390576575347
2288 1 38.830734098 12.7538867 2.86744695041
2766 1 38.8152950178 15.6470890848 2.86514521105
2767 1 37.8613996706 14.1918806802 1.10640038431
2799 1 40.4565355605 14.1592544061 1.82676454278
2768 1 39.5444086822 15.6307900086 0.0800339284946
2290 1 39.5833268451 12.7374925358 0.0321834152442
2322 1 42.2581416409 12.8521452492 0.690609702693
2800 2 42.0723837659 15.4119000674 0.90445663455
2830 1 43.226800892 14.1938660108 2.47813151217
2320 1 41.5395104264 12.830855804 3.55702143274
2798 1 41.5304751455 15.6129366847 3.54377489517
7259 1 44.9840384074 12.906909836 1.20101175773
6780 1 45.8894650816 15.5432132736 0.845681520111
6778 2 45.4670584211 14.2469801163 2.83551847304
7768 1 47.1351802913 15.7766680543 3.22946771545
7290 2 48.4989968483 14.0219431149 2.32083019266
6811 1 50.0781934049 12.7739250659 3.15871155634
6813 1 49.0303110458 12.8359093738 0.446856927562
7289 1 49.756252383 15.7543067063 3.09541433576
7323 1 50.8284021061 14.3424780132 1.3245500681
7291 1 48.5582900664 15.703793909 0.698666270303
6844 1 52.5474386685 12.8856058978 2.34885845527
6876 1 55.3259232146 12.869848941 1.63509385021
7322 2 52.6669835835 15.6760649982 2.49028964272
7355 1 53.6145056966 14.3009572849 0.643001998713
7353 1 54.3423547728 14.2527490436 3.38486037227
7354 1 55.3350208446 15.694386177 1.64767884795
6909 1 58.0538741588 12.8636967785 0.909572143519
7386 1 57.0578989621 14.2796238367 2.65639623555
7387 1 58.0435837813 15.7175096474 0.908385804252
6907 1 58.7733512461 12.8480215271 3.67210857084
7385 1 58.7757782157 15.7165311467 3.67392362035
6940 1 61.4956882343 12.8606463451 2.95104523077
6942 1 60.7722487113 12.8699516531 0.187251603752
7418 1 61.4974524945 15.7271947947 2.95632409756
7419 1 59.7742635951 14.2924804452 1.93269047626
7420 1 60.764025801 15.7262541178 0.18704974749
7452 1 62.4983770673 14.3048566832 1.2149917057
6973 1 64.2091671851 12.8631286372 2.23045513753
7451 1 64.2389909577 15.7485482148 2.24949801125
7484 1 65.2042011243 14.3015951219 0.491068840717
7482 1 65.9164573931 14.288172744 3.24262273322
7005 1 66.9179574859 12.8610741155 1.50784234509
7038 1 69.6305675585 12.8614805326 0.788330320838
7483 1 66.9188546217 15.7272438847 1.51634964196
7515 1 68.6340491077 14.284365116 2.51946091307
7516 1 69.6086118382 15.7410291457 0.821250165953
7069 1 73.0736722985 12.8498835661 2.82740961717
7547 1 73.0716385673 15.7181703913 2.83469267164
7548 1 71.3434864062 14.2946327183 1.81742316181
7514 1 70.3118434936 15.7313084117 3.55648818246
7036 1 70.3513642763 12.8514501905 3.54936803087
7388 1 72.3533804903 15.7212418289 0.0777233115836
6910 1 72.3529437723 12.8584616847 0.0669609472596
7101 1 75.7978659297 12.8406773104 2.10708519067
7579 1 75.8060330249 15.7159440754 2.1211394585
7580 1 74.0784003193 14.2838669316 1.09190374458
7610 1 76.7962451866 14.2806483112 0.379101802255
7608 1 77.5212559327 14.2775847577 3.14344343304
7131 1 78.5100385906 12.838643363 1.40107612145
7609 1 78.5326361423 15.7064879765 1.41190743292
7630 1 80.2456013146 14.2640236796 2.43213637234
7153 1 81.219049055 12.8213879621 0.685248975755
7631 1 81.2752969711 15.6609194098 0.701519340603
7643 1 82.9846730433 14.1901616145 1.72323128224
7164 1 84.7575857631 12.7888926223 2.76994221225
7629 1 82.0108788615 15.6650062536 3.45758215446
7151 1 81.9394183091 12.8518157001 3.48133524363
7642 1 84.6780492279 15.6111473891 2.75786517475
7039 1 84.007046409 12.7110137276 0.0354405954374
7169 1 88.6356032977 13.9950178029 3.48394375242
2393 1 88.5016057929 14.089649908 0.512056557166
7170 2 87.2637770532 12.7746076057 1.94960200474
7647 1 87.413802008 15.6237811102 2.08201207496
7648 1 85.6799665538 14.24678309 1.00425139141
2870 1 1.31116108624 18.7727330595 1.86118248723
3359 1 3.236109313 19.8736166298 0.73408203397
3348 1 2.38581911407 19.9797551291 3.58602698909
2881 1 2.85846689654 17.0588270932 0.86242030421
2879 2 2.40170436757 17.3260666806 3.60847483285
2871 1 0.0421253483426 16.9783957404 0.563505553429
2880 1 4.05695371234 18.4733199175 2.48127058155
2897 1 6.64549822268 18.4796687769 3.1540632994
2898 1 5.6643584563 17.0246735877 1.4354631934
3376 1 5.69361370484 19.9195270043 1.37526700787
2899 1 7.4268072258 18.4795043878 0.421924308125
2924 1 8.38671659199 17.0533847535 2.14594560301
2925 1 10.0843640975 18.4876710959 1.10874579994
3402 1 8.37721130875 19.9271104557 2.13350463481
3433 1 11.0909888749 19.9113243172 2.85265334963
2955 1 11.0947050944 17.070507591 2.86555652485
2956 1 12.8220049369 18.4906543106 1.84476956991
2987 1 13.8352465146 17.0712214264 3.60179387476
2989 1 14.5627564767 17.0667391799 0.835428433501
3465 1 13.833549152 19.9223640993 3.59325823717
3467 1 14.5624425321 19.9182414461 0.830469557844
2957 1 11.8080490866 17.0589761966 0.112470949542
3435 1 11.8121750748 19.9097533416 0.105238468898
2988 1 15.5664659749 18.4973946399 2.57788143625
3019 1 18.3000866274 18.4999478952 3.30188312787
3020 1 17.2981973368 17.0717563741 1.5564581243
3498 1 17.2971960211 19.9250715314 1.55222118579
3021 1 19.0286155519 18.4980511516 0.534877043331
3052 1 20.0328171254 17.074421034 2.28246292847
3053 1 21.7655626862 18.4989989386 1.26452236562
3530 1 20.0328862595 19.92621103 2.2799778132
3083 1 22.7730669702 17.0763555433 3.01156270117
3084 1 24.5172776307 18.4897768004 1.99941296554
3561 1 22.7756632307 19.9225992814 3.00938194465
3085 1 23.4985719465 17.0734463513 0.249245238282
3563 1 23.4992376028 19.9216882199 0.251811061749
3116 1 27.2616140768 18.4744155443 2.72756289077
3117 1 26.2528895789 17.0730600383 0.984219909537
3149 2 28.9920558734 17.0710852046 1.56518574653
3595 1 26.2446333509 19.908390095 0.991762802654
3627 1 28.9583370618 19.9037345071 1.70355109989
3148 1 29.9345696046 18.4723722966 3.43910388482
3150 1 30.6953050513 18.5053443145 0.669786437332
3181 1 31.6619715224 17.0718383082 2.4203024714
3659 1 31.6633845024 19.9051416613 2.43149341948
3182 1 33.403737336 18.4946136649 1.40928642446
3212 1 34.4107549426 17.0736084095 3.15448644577
3213 1 36.1336117787 18.5086539324 2.13367329961
3690 1 34.4044522054 19.922699314 3.1526471834
3214 1 35.136574165 17.0716956087 0.39173152101
3692 1 35.1396963355 19.9287433159 0.389660250481
3244 1 38.8693157201 18.5277417676 2.84098174936
3245 1 37.8295367409 17.0566022838 1.12554202256
3723 1 37.8717377599 19.9413053496 1.11904828591
3246 1 39.521929332 18.4393980992 0.124671299432
3277 1 40.5194784378 17.0547246879 1.83950190192
3755 1 40.6166316866 19.9934434336 1.81098025222
3278 2 42.0627604052 18.5213168146 0.694293743456
3786 2 43.3168457676 20.2347292057 2.82602358786
3308 1 43.0422587215 16.9603089942 2.42630514526
3276 1 41.5997076414 18.5503378426 3.48338349692
7735 1 44.2830396156 18.9575768032 0.833447467803
7171 1 43.840476943 16.7203394951 0.0449035343154
7737 2 45.2173656896 17.2376773729 2.2715943936
8212 2 46.4809972317 19.745541094 3.44335640656
7734 1 47.5527015229 17.7136156819 2.0415333805
8246 1 48.0207561489 20.1352833289 1.92138485831
7767 1 49.8184182775 18.4018223667 2.97130656726
7801 1 50.8553384986 16.9430881166 1.29292755267
8279 1 50.8244599783 19.8803772535 1.30224236662
7769 1 49.1086343349 18.4208877776 0.385890811136
7800 1 52.5504233378 18.4593333973 2.30728221492
7832 1 55.3044590583 18.5392097329 1.62087371197
7833 1 53.628111937 17.0687577163 0.631610803565
8311 1 53.5697493598 19.9536110151 0.625018057868
7831 1 54.3366985375 17.1325709842 3.37182754787
8309 1 54.2736880778 19.9500765222 3.33157192352
7864 1 57.0468773121 17.1383599366 2.65040521884
7865 1 58.0156368316 18.5625717785 0.895178825134
8342 1 57.0299514545 19.9944045952 2.63290717596
7863 1 58.7705651067 18.5777443151 3.67070475143
7896 1 61.4862163317 18.579567461 2.95217610676
7897 1 59.7637887305 17.1506150794 1.92886166526
7898 1 60.7471996491 18.5620199478 0.172038839883
7930 1 62.4931170522 17.1564704361 1.21490970306
8375 1 59.7222038095 19.9717036689 1.90243082052
8408 1 62.4961483505 19.9645805743 1.18288798618
7929 1 64.2328034501 18.5716590781 2.24883008002
7962 1 65.1936041139 17.139637652 0.489634242434
8440 1 65.1659298832 20.0149778158 0.485665736947
7960 1 65.9913196195 17.1798830643 3.26675911938
8438 1 65.9166526511 20.0014104413 3.25033324785
7961 2 66.8788492333 18.586929714 1.38282701553
7993 1 68.5753662484 17.1753773394 2.58009608443
7994 1 69.5979433539 18.5590075104 0.818661810139
8471 1 68.6146139077 19.9876191018 2.54076295138
8025 1 73.0753396135 18.5731866785 2.8487294309
8026 1 71.3309102482 17.152656503 1.83234152408
8504 1 71.3401681871 19.9834800951 1.82676761643
7992 1 70.3160337297 18.5710284493 3.5731281848
7866 1 72.3535466823 18.5681041834 0.081706948731
8057 1 75.8161100922 18.5772688178 2.13210188937
8058 1 74.0827988794 17.1489367951 1.10215604511
8088 1 76.8159207977 17.1455021002 0.384922305373
8536 1 74.0871906316 19.9970812031 1.10625562862
8566 1 76.8322239716 19.9942896961 0.385033219274
8086 1 77.54053747 17.1454418953 3.15311658202
8564 1 77.5568825762 19.9942360351 3.16229781635
8087 1 78.5617864559 18.5624270598 1.41355424231
8108 1 80.2898571815 17.1197352731 2.43459726149
8586 1 80.3136360876 19.9750071649 2.43636169055
8109 1 81.3071941079 18.5350758422 0.689100949071
8121 1 83.0246433545 17.0969746262 1.72053434634
8599 1 83.080574555 19.9337267427 1.71212054087
8107 1 82.0434796655 18.5341668702 3.45975074616
8120 1 84.8171874992 18.5177787315 2.753049878
3349 2 88.2311004827 19.2076353034 0.486757412839
8125 1 87.5354848778 18.1772751877 2.36877550447
8126 1 85.7165417889 17.0160601357 1.05254759556
8604 1 85.8995949437 19.9061070783 1.06159862349
3837 2 1.76457006868 21.2298565379 1.69938067653
3882 1 3.09967797975 22.8800428886 0.687175516064
9081 2 1.47740562331 24.2378556272 1.95611018391
3835 1 2.24423795206 22.8189684405 3.53310480096
3836 1 4.03538187044 24.2608556652 2.41999859089
3358 1 4.05983715942 21.4117248138 2.4703412316
3375 1 6.65301313237 21.3864348301 3.13973070047
3853 1 6.65980518559 24.2468777626 3.15373440853
3854 1 5.68765979247 22.8290910251 1.37093534041
3377 1 7.39933668019 21.3953060715 0.403392553165
3855 1 7.42510009732 24.2312375995 0.361619399358
3403 1 10.1210418175 21.3644216641 1.13846412295
3880 1 8.39426880512 22.8050830129 2.13085156995
3881 1 10.1356145632 24.2176039758 1.11134259266
3911 1 11.1141287894 22.781644843 2.86290534258
3434 1 12.8320658126 21.3429991014 1.84440535273
3912 1 12.8521341523 24.2100835881 1.84247935995
3943 1 13.8412766092 22.7754843337 3.59008443948
3945 1 14.5696076257 22.7749187049 0.825719020413
3913 1 11.8497752791 22.7796703731 0.102764699039
3466 1 15.5688214226 21.3497532826 2.57230131995
3497 1 18.3026846258 21.3542361139 3.29568885674
3944 1 15.5741392693 24.2078311474 2.56669805797
3975 1 18.3021944275 24.2107354644 3.28922864147
3976 1 17.2975382306 22.7803068756 1.54582856585
3499 1 19.0274061885 21.352659426 0.53090632094
3531 1 21.7658481882 21.3517234652 1.26290914096
3977 1 19.0268642724 24.2097690832 0.527151279611