#Header

8960 atoms

2 atom types

0.0 45.68 xlo xhi
0.0 51.0717926061 ylo yhi
0.0 44.6878185303 zlo zhi


Atoms

569 1 2.34478394829 1.42387315455 2.29157266138
566 1 2.84081335366 3.59940304055 0.975559529631
3 1 1.35260397019 3.65246752378 3.31202299782
8401 1 0.241731910562 3.37747482574 1.37323888354
562 1 4.211891656 1.75118076146 0.36261677652
563 1 4.22456663371 2.99051404957 2.91673506885
1122 1 7.10872272135 1.75461272554 0.344093101593
1123 1 7.13664531303 3.05446743637 2.89696022045
1126 1 5.68068051611 3.65484787907 1.0076529145
1129 1 5.72920538313 1.21928115987 2.28170431881
1682 1 9.89694624683 1.77523180059 0.346324611261
1683 1 9.87648547855 3.03715992416 2.94347543632
1686 1 8.5273369005 3.67629795067 0.975189622198
1689 1 8.55124519433 1.13538918856 2.26628312323
2249 1 11.2661008428 1.05996321788 2.27465073585
2246 1 11.1695808705 3.81722253564 1.01369831321
2242 2 12.3607183957 2.07564586954 0.49895369542
2243 1 12.6809498848 2.98933216332 2.87351054555
2809 1 14.0891536873 1.08423720901 2.12199877686
2806 1 14.0951279462 3.56665975048 0.960620125422
2803 1 15.4718842232 2.93318564916 2.83362931525
3369 2 17.0187041422 1.09942019724 2.54833494684
3362 1 18.3405588109 2.3165809915 0.523632337362
2802 1 15.9237158155 1.5605502933 0.344675674787
3366 2 16.7065199008 3.89907211858 1.00121585056
3929 1 19.3415573845 1.8424947419 2.73466980434
3363 2 20.001303821 3.67837378205 1.56733231025
4489 1 21.7496860961 0.405378615132 1.92020840774
4488 1 21.8708697096 3.23168461417 2.72506733451
4411 1 20.6427971025 1.56596462322 0.290303414161
3923 1 23.36755813 2.05036375888 1.19487823864
4482 1 24.3986306038 0.437873819454 2.35596769598
5047 1 25.7637286343 2.59745293734 1.49011199345
5046 1 25.7802009085 0.143369274794 0.310564759408
4483 1 24.3266780719 3.18244262575 3.42299331774
5042 1 27.2247600482 0.74760836039 2.22331680295
5043 1 27.2083549251 3.24881794237 3.44393556904
5602 1 30.1121493517 0.792753441363 2.25478030948
5603 1 30.0797999219 3.31758488247 3.5104176347
5607 1 28.6658336001 2.63675809876 1.6066257688
5606 1 28.7296069855 0.140554204149 0.378267547707
6162 1 32.9234442499 0.811783687612 2.25549772758
6163 1 32.9013224136 3.36206964644 3.51299966423
6167 1 31.5029044279 2.69695216745 1.62006853723
6166 1 31.5313215656 0.15951390003 0.355970362777
6727 1 34.3111504964 2.72386140826 1.61414790437
6726 1 34.3169808075 0.168838062729 0.345999103026
6722 1 35.7296790964 0.807145391803 2.25998844872
6723 1 35.731748356 3.37524174471 3.51423360564
7287 1 37.117412306 2.71062343871 1.62924247865
7286 1 37.1009489882 0.176215463476 0.357291658326
7282 1 38.4963446346 0.756077840673 2.28246855028
7283 1 38.4810946441 3.40947820377 3.5302190367
7842 1 41.2268271054 0.760409881476 2.28647778354
7847 1 39.7994330118 2.60793603989 1.74420014353
7846 1 39.8649627437 0.144811194593 0.344889770487
7843 1 41.333874373 3.4663230311 3.501947809
8407 2 42.4752287383 2.51216543978 1.61186085575
8402 1 44.1932734408 1.05393334359 2.31489036603
8403 1 44.0661161655 3.33610349914 3.2306944501
8406 1 42.6514017179 0.123992564582 0.386960043754
6 1 1.74612520342 5.60121949881 1.71258264432
639 1 2.80655422997 7.75082979152 2.25178136682
567 2 3.15590998088 4.93590378242 3.70630318681
8404 1 0.154563021683 7.6686950652 2.42608322014
79 1 0.230102233211 6.11286473725 0.0136899191434
561 1 4.30029872648 5.59681794672 1.64509694378
1121 1 7.10822630766 5.57875089242 1.62965946142
1199 1 5.71268990433 7.50507922072 2.26871168473
1127 1 5.72061745092 4.9251566804 3.55772380712
1681 1 9.87293882687 5.64367261989 1.62597374308
1759 1 8.51900322403 7.520911596 2.25817456863
1687 1 8.52671243387 4.95742447766 3.54184600672
2319 1 11.3351766915 7.50504022594 2.23963651652
2247 1 11.3340184847 4.92697662267 3.49691017951
2241 1 12.7289529281 5.58576831237 1.58896204011
2879 1 14.0839597129 7.49306528917 2.20814837012
2807 1 14.0897533362 4.86163655894 3.50356168797
2801 1 15.356620858 5.56862880747 1.57443069093
3361 1 18.5150793355 5.54874594564 1.27675633558
3439 1 16.7662611717 7.43864766839 2.16516029392
3367 1 16.9189509249 4.85000472911 3.31292998263
3921 1 21.5471169705 5.36313125241 1.21081089468
4559 2 20.1262910182 6.87370396688 2.7122343967
3999 1 20.3976730773 7.30141918498 0.343839432356
4553 1 22.2919275359 7.53241044228 2.52129338866
4481 1 24.1162780765 4.4236436773 0.812873584721
4552 1 24.5686083375 7.07363943307 2.10682073803
5048 1 25.7768881449 5.08205780375 2.73825985257
5116 1 25.8768221195 6.34203731278 0.313711611705
3995 2 23.1836692894 5.24106521763 2.94587522043
4556 1 23.0435722991 6.90505786343 0.0399297336031
5041 1 27.2761051243 4.51814126215 0.984931940506
5112 1 27.3267861758 7.06530515706 2.24333926209
5601 2 30.0730815507 4.5726725038 0.971962047568
5608 1 28.6734345087 5.17109384136 2.8740197257
5672 1 30.0501846974 7.14673540724 2.30077475451
5676 1 28.6684497765 6.48156551988 0.360761584437
6161 1 32.8782324044 4.61630399963 0.977405409122
6168 1 31.4784229804 5.24824092517 2.89131218622
6232 1 32.8827789555 7.15577126942 2.25248825162
6236 1 31.4630620832 6.51746852783 0.366739121715
6796 1 34.2712037902 6.52461785437 0.324954693719
6728 1 34.3079329354 5.26333896699 2.86364519968
6721 1 35.7020469041 4.62569040256 0.964843590649
6792 1 35.6979671512 7.17541754622 2.21547724192
7288 1 37.1400207678 5.28241996261 2.82041022091
7356 1 37.0729798436 6.53212567788 0.2809452981
7841 1 41.1809925752 4.43765431195 1.08168450861
7281 1 38.5475070854 4.58950978064 0.868988799273
7352 1 38.4928476903 7.21508444123 2.17910800937
7848 1 39.8599746146 5.30351853615 2.81887947579
7912 1 41.2793706662 7.23844692923 2.07161657982
7916 1 39.7662375793 6.6250520441 0.235032875687
8476 1 42.1043788265 6.31357549994 0.0805911351422
1 1 45.2085957291 5.36715441258 2.69478157285
8408 1 42.7228897952 5.47603339588 2.94156580887
8472 1 43.721918832 4.47066387412 0.919608386551
76 2 43.8953320517 6.79552181974 1.22755376241
72 1 1.41213391216 8.25934000171 0.303651698268
73 1 1.41422021818 9.75736615505 2.85921747527
636 1 3.06728105848 10.0809957396 0.944036117332
637 1 3.01469092859 11.3756283466 3.57471542836
632 1 4.3387597774 8.12526060168 0.35105475295
633 1 4.36907014595 9.46706633042 2.9043165087
1192 1 7.13661914377 8.1210503652 0.337378272671
1193 1 7.15438185867 9.42554093869 2.89045662795
1196 1 5.78488761855 10.0256242893 0.96045471805
1197 1 5.80800953911 11.3531148085 3.56310711845
1752 1 9.90946711534 8.14196864513 0.323000205227
1753 1 9.95454224734 9.42812549322 2.86690346595
1756 1 8.52204264152 10.0772071753 0.955289894823
1757 1 8.56442842316 11.3497310205 3.49926709687
2317 1 11.3804585319 11.3370429499 3.48723134601
2316 1 11.314354423 10.0766630253 0.942542713855
2312 1 12.6614887783 8.13764297434 0.308620165265
2313 1 12.7565530624 9.42376121349 2.85143774823
2876 1 14.0968659782 10.058916061 0.88131042443
2877 1 14.1956712282 11.3166405472 3.47569224391
3432 2 18.061623989 7.89336304142 0.359903138575
2872 1 15.4203462385 8.14742359547 0.273929405413
2873 1 15.4865456771 9.36913226008 2.78800635653
3433 1 18.5029357398 9.14469283476 2.71141610461
3436 1 16.933006486 10.0367930399 0.986167492915
3437 1 16.9025569904 11.2162289428 3.31468151114
4557 2 21.9871066199 9.01519290138 0.640824770979
3996 1 19.7178986803 9.78507503721 0.469025149933
3997 2 20.2349727666 10.7179747433 2.6098911223
3991 1 22.3074686126 11.4707440039 3.49437704653
5118 2 23.9690109175 11.0021943913 2.12265559248
5117 1 25.8848329959 9.23550210834 1.86478979837
4551 1 25.9872464284 11.541215103 2.95535778993
4615 2 25.0025007821 8.45436504555 0.0335332573789
5111 1 27.4616905435 10.9939374302 1.05896728199
5671 1 30.1166441199 10.9908124668 1.01736770071
5673 1 30.0954740414 9.67986667469 3.5657019885
5677 1 28.6557411176 9.04838061609 1.71054223588
5678 1 28.7408300585 11.5969443345 2.96759854533
5113 1 27.2645304171 9.65241357005 3.71683365289
6231 1 32.8734043218 10.9961078793 0.987370716998
6233 1 32.9171104734 9.71993267748 3.53526397694
6237 1 31.4837194085 9.05932798287 1.64290478654
6238 1 31.5326356353 11.618826643 2.91444741224
6797 1 34.2789249483 9.0847965128 1.60706327343
6798 1 34.3107840026 11.6665308607 2.88458390339
6791 1 35.6507515616 11.0214585407 0.96478332149
6793 1 35.7171383274 9.75370174296 3.50865955034
7357 1 37.0539658711 9.10290071162 1.56266561419
7358 1 37.1193583338 11.6683727366 2.84705146579
7351 1 38.4288778753 10.9945706772 0.858617797868
7353 1 38.5118349725 9.74812829432 3.4288421151
7911 1 41.2260017715 11.0150032232 0.729586756009
7917 1 39.8933770274 9.13681848748 1.4964922367
7913 1 41.4378405342 9.79181655998 3.32250021872
7918 1 39.858474407 11.6379999647 2.77932788676
8477 1 42.8159188168 9.12608352748 0.848413891132
8473 2 45.1092531061 9.66438176682 1.40772814242
71 2 0.96521226067 12.2630820599 2.546539434
706 1 2.91218304821 13.6197886781 2.37165397668
141 1 0.291459421637 14.2906302977 1.40906292943
769 2 2.35555137277 15.4104063206 1.27905492905
631 1 4.53208599215 11.9689052992 1.65630739714
1191 1 7.11975953905 12.010677339 1.58605646949
1262 1 7.09618961713 14.5598541853 0.313483551494
1269 1 5.76426717166 13.9684894638 2.28840689723
702 1 4.39067663635 14.5974593856 0.370447205664
1751 1 9.93226193873 12.0000331412 1.57952752907
1822 1 9.90674156404 14.5740339618 0.296947220772
1829 1 8.54191516324 13.9231377685 2.22432492917
2389 1 11.3550448379 13.908672262 2.20161246804
2311 1 12.7411015055 11.9874177903 1.55388655904
2382 1 12.7241544045 14.5495898446 0.266222345792
2949 1 14.1689994937 13.8830815692 2.18177716638
3431 1 18.5522550186 11.9812805768 1.38380909042
2871 1 15.4827103994 11.9456346395 1.49298441019
2942 1 15.4424791888 14.5311582989 0.189412020791
3502 1 18.3646397327 14.6228103103 0.261704213532
3509 1 16.8810674057 13.8363517836 2.00342938587
3505 2 18.1694400398 13.097767779 3.67808469288
4069 1 20.600070015 13.1407701036 3.00022309729
4062 1 20.5782443542 13.716533063 0.678705669755
4066 1 20.2573951449 15.4529342999 2.48238873186
4627 1 22.4078388765 15.3750898943 1.66929853395
4614 2 22.9719362661 13.4652784522 0.292324728529
5186 2 26.1460407852 12.8959776236 0.399829710703
4626 1 24.3170509938 13.3542507104 2.30907287949
5187 1 24.680102049 14.8483215185 0.127587907002
5182 1 27.3251040877 13.4649615354 2.27336770438
5742 1 30.1886134564 13.5083691708 2.29191830738
5747 2 28.8653648478 15.2771887028 1.67485832658
5746 1 28.7837970734 12.9513488954 0.390575987482
6302 1 32.9081860124 13.5886278071 2.25320460506
6306 1 31.5200287247 12.9385323714 0.32762216518
6307 1 31.5188175115 15.5024451589 1.59975265642
6866 1 34.2315108066 12.9140075118 0.341069360669
6867 1 34.3161334337 15.5067881776 1.59336895278
6862 1 35.7154721076 13.5848037435 2.21156079966
7426 1 37.0885059166 12.9029885866 0.246906581185
7427 1 37.0975628667 15.5150003298 1.58850392722
7422 1 38.4509615034 13.5704423782 2.16025824631
7982 2 41.0238835675 13.4363277563 1.88167713106
7986 1 39.7092876852 12.94404694 0.0924006347765
7987 1 39.7643673444 15.4981402606 1.46505921939
77 2 44.073144211 13.0404334762 1.28687312751
8547 1 42.5187332713 15.3671402907 1.61227189823
143 1 1.38653993459 15.9959736001 3.18198660179
8543 1 0.322362016017 16.6662921654 0.52886752066
703 1 2.46178465015 17.588193466 1.40006178248
779 1 0.385952988939 18.2398404929 3.09567505
218 2 0.622519303813 19.0509414313 1.03453413636
710 1 3.07401612214 17.894985754 3.68159445306
1263 1 7.17435131243 15.8575038266 2.92114681143
709 1 4.24898086243 15.8878105491 2.83850819672
701 1 4.57120204468 18.4672120079 1.76270824708
1266 1 5.84568872092 16.4965170302 1.03037502556
1261 1 7.14960826106 18.45420197 1.68512021731
1267 1 5.77092222992 17.7772744105 3.63320344321
1823 1 9.96071093018 15.8337656793 2.85460740889
1821 1 9.94068539251 18.3997753907 1.59836068139
1826 1 8.51299373831 16.4972877669 0.958220996228
1827 1 8.57799148001 17.767442707 3.54119867815
2386 1 11.3331746383 16.4743393948 0.925837234628
2387 1 11.381510936 17.7366498652 3.48876142943
2383 1 12.7733689119 15.8111727697 2.82788138848
2381 1 12.7480657389 18.3814037149 1.5558314802
2946 1 14.1285904153 16.46521167 0.887742417461
2947 1 14.1921668737 17.7196968669 3.46000734395
3503 2 17.9905506277 15.9970716326 2.52606082929
2943 1 15.5352120142 15.7907825869 2.78937348052
2941 1 15.4672433393 18.4177872898 1.47514750613
3501 1 18.1558119534 18.3445174183 1.34168777589
3506 1 16.7565399906 16.4655044032 0.727135951549
3507 1 16.8755974229 17.7880722331 3.40528086013
4061 1 21.2268874792 17.8657626935 1.40479187887
4067 1 19.4500515967 17.7599411654 3.1938327783
4124 2 20.4480150371 15.9468476418 0.185729990318
4135 1 21.1397185626 19.3223496026 3.71098801168
4623 1 24.5681887335 15.7675392437 2.88134833673
4696 2 23.448023526 19.1349998923 0.848231269646
4628 1 23.112989497 17.9245583331 2.92275037497
4621 2 25.7992191495 16.5363669624 1.20938652365
5188 1 26.0831298597 18.0438449935 2.93883126827
5256 1 25.8425179093 19.04530334 0.337377663366
4063 1 23.6840251641 17.0199290744 0.222394524958
5183 1 27.294560413 16.0321939469 3.36313675473
5181 1 27.7134926774 17.4772163469 0.968078121657
5741 1 30.1083283659 17.4068700507 0.952365677619
5743 1 30.1429685708 16.1304398639 3.51390205293
5748 2 28.752872495 18.1372784379 3.02309227043
5816 1 28.7021343301 19.3942035721 0.213330218329
6301 1 32.9327164208 17.4101801126 0.933458294681
6303 1 32.9264529188 16.1346415151 3.49453090541
6308 1 31.4950482686 18.0477344665 2.84611029477
6376 1 31.4689064673 19.3222240043 0.307367061999
6936 1 34.2762692266 19.3300750373 0.29651519622
6868 1 34.2836243101 18.062957166 2.88990105118
6861 2 35.6954183307 17.4910532448 1.154513122
7428 1 37.1856922915 18.083210667 2.95206081708
7496 1 37.034351424 19.3423225117 0.292109285499
6863 1 35.7326475825 16.147505562 3.5029845336
7421 1 38.387200051 17.4447685553 0.905789832083
7423 1 38.5209128343 16.1321716215 3.5207061223
7981 1 41.2207046888 17.3938549961 0.964342460891
7988 1 39.8143232245 18.158533336 2.91628616913
8056 1 39.8358741235 19.3415673432 0.283926874635
7983 2 40.9081901529 16.2581535826 3.34594388376
147 1 44.6604905899 16.2345071628 2.51345719006
8610 1 43.853883905 17.7827738812 1.05559496372
8544 1 43.6854786134 18.654869658 3.31525103911
220 1 1.59450279027 22.0105671839 3.2292496528
216 1 2.95793394453 22.8313062717 1.13610309921
228 1 2.74687248951 20.1216914495 2.12785059127
776 1 0.951415895637 21.5019727172 0.952872571748
772 1 4.38243870979 21.0093444179 0.493670177525
773 1 4.18158412541 22.3028994014 3.17040059989
1332 1 7.13873117199 20.9912782506 0.422308300356
1333 1 7.16495331295 22.2538441305 3.00459577091
1336 1 5.73840701149 22.879504442 1.12108760824
1339 1 5.72780853117 20.434862954 2.41522633362
1892 1 9.94883842615 20.9561164963 0.356960627683
1893 1 10.0060788962 22.2219259581 2.92719426843
1896 1 8.5663200325 22.868516674 1.05414647648
1899 1 8.56906386436 20.3415551071 2.29694369939
2459 1 11.3566969633 20.2816196693 2.23178984344
2456 1 11.3840140603 22.8437090398 1.00464533607
2452 1 12.7394699295 20.9407928385 0.28617600654
2453 2 12.7649073606 22.0762601742 2.95614098007
3016 1 14.106274584 22.8367492265 0.971230673618
3019 1 14.1400267467 20.282252858 2.18893102442
3012 1 15.4973300211 20.947139601 0.227487074894
3013 1 15.494584085 22.1656279488 2.8725328789
3573 1 18.3137556854 22.1714105298 2.73239549939
3576 1 16.8207050558 22.8319720546 0.952505774573
3579 1 16.8894840143 20.2778337248 2.13387910905
3572 1 18.1506120457 20.9459562674 0.196443470931
4697 1 22.3619163878 21.1684248358 1.80805238317
4139 1 19.8212643171 19.8522861171 1.7031091345
4136 2 20.4062427923 21.4825374295 3.00922484104
4766 1 20.3235548257 21.9666163777 0.505069721892
4691 2 22.9682262258 23.3495108583 2.47454403943
4692 1 24.7836774695 20.003235414 2.38680435985
5257 2 25.9818331246 21.7719105096 1.39793830087
4693 1 24.5699563498 22.2248419469 3.46928032815
5252 1 27.3005054755 19.9419897419 2.21338795966
5253 1 27.3044998188 22.3917954706 3.47162433501
5812 1 30.0632500563 19.977095171 2.20334476191
5813 1 30.0287738809 22.5045638422 3.42678201852
5817 1 28.6284618242 21.872578842 1.52378396052
6372 1 32.8763749306 19.9663760623 2.19457755779
6373 1 32.8507731421 22.5214913282 3.4452631935
6377 1 31.4385737457 21.8877541647 1.54566738383
6937 1 34.2589054359 21.8811391422 1.54236105555
6932 1 35.6751406777 19.9566228836 2.20298984393
6933 1 35.6420208899 22.5345564095 3.44018462033
7497 1 37.0442706086 21.8835307713 1.54222777079
8052 1 41.574114624 19.6831986679 1.9288559471
7492 1 38.4692281902 19.9882394816 2.18925392598
7493 1 38.3870467371 22.5418285347 3.43819680521
8053 2 41.02319257 22.7026170471 3.33990573309
8057 1 39.8639796096 21.8267365581 1.52920115222
8548 1 44.3945096009 20.1471164854 1.63387446477
8617 1 42.5893431396 21.8524170947 1.40305418205
8604 1 44.8667024943 22.3372699772 2.3928025368
280 1 0.702096351353 23.9490580594 1.52318658477
211 1 0.950109338991 26.2337190563 2.24796917215
849 1 3.11041326086 26.9820020866 2.44797251729
777 1 2.67377014733 24.554397141 2.92026796577
219 1 2.73543321655 25.1523484054 0.184136409351
282 2 1.92000401033 27.2389675812 0.233876036626
771 1 4.53265782557 24.8662941146 1.70638988221
1331 1 7.18356287675 24.8132089222 1.65818885857
1409 1 5.80246519035 26.7874734729 2.28823512437
842 1 4.34389896547 27.3523035302 0.33568437825
1402 1 7.17362763389 27.3189825751 0.341864436221
1337 1 5.81639335995 24.1752312429 3.5493085846
1891 1 10.0039523173 24.7573432362 1.64623267263
1969 1 8.59920248751 26.6927645599 2.27397495531
1897 1 8.61617036626 24.1463858038 3.54633662511
1962 1 9.99019481498 27.2899596682 0.344979013025
2529 1 11.3734080332 26.6792348886 2.27693032119
2457 1 11.414109595 24.1097066562 3.54130502292
2451 2 12.752619909 24.8581768113 1.5625779474
3089 1 14.1583739019 26.656965976 2.26101751465
3017 1 14.1305467295 24.0965368314 3.53516545421
2522 1 12.7669823507 27.2713307775 0.334403710138
3011 1 15.4865215713 24.7352278221 1.62824110973
3571 2 18.1964002678 24.6475325825 1.70141353256
3649 1 16.9411668112 26.6282804653 2.26908945787
3577 1 16.8197903924 24.0615269684 3.54901324766
3082 1 15.5639754516 27.2350682548 0.314073475053
3642 1 18.4206523653 27.169814567 0.451584413666
4131 1 20.6171064603 23.6171571539 2.2701775205
4209 1 19.7116046991 26.4336963265 2.42357501928
4202 1 22.0298403505 25.677712661 2.30087284024
4194 1 20.2253275632 24.8359704938 0.392098281527
4208 2 20.9086970403 27.1394160904 0.556606115263
5329 2 24.1637638047 26.3811992897 1.6152063942
5258 2 26.0567883417 24.3077379551 3.09927384334
5251 1 27.1634779692 23.8339829236 0.939165989107
5811 1 29.9665872507 23.8112558336 0.902121200663
5322 1 26.9869268286 26.3870753015 2.16268044975
5818 1 28.5628851338 24.4598102555 2.83416898139
5882 1 29.9393477077 26.3579450756 2.16462878459
5886 1 28.4833863903 25.7075678032 0.275859374393
6371 1 32.8264671239 23.8068361831 0.905322744031
6378 1 31.4018143281 24.4417567261 2.80084632132
6442 1 32.803419272 26.3548797297 2.16212243604
6446 1 31.3813670048 25.7204051521 0.269914583135
7006 1 34.2311159487 25.7159495204 0.260239258794
6938 1 34.2323972962 24.4470591493 2.80821782105
6931 1 35.6526009637 23.8105629821 0.908508116142
7002 1 35.6483273713 26.3370199619 2.16535723598
7498 1 37.0507238963 24.4536230718 2.81239550964
7566 1 37.0312148853 25.7086753562 0.224129535636
8051 1 41.1839393353 23.8068815261 0.928795855713
7491 1 38.4133612058 23.7918090334 0.881896595647
7562 2 38.4231880525 26.4081482575 2.03982963878
8058 1 39.7187607466 24.4785539523 2.79882180583
8122 1 41.2131433554 26.2720933323 2.16168389631
8126 1 39.835399874 25.7046193227 0.233317508919
8611 2 43.8132433511 23.8837474782 1.02881330724
8618 1 42.6197709118 24.1788475538 2.9499375626
8682 1 44.0610370152 25.9278554737 2.26912630597
8686 1 42.5846183138 25.6701357453 0.191267786071
288 1 45.5352317036 25.6713444171 0.0736397150606
286 2 0.920716267556 30.3523646257 1.59063740608
846 1 2.89323249624 29.3193905423 0.809059052374
847 1 2.74984154304 30.6165592352 3.24643857586
843 2 4.51779180305 28.8445062006 2.78844053385
1406 1 5.80106871861 29.27092744 0.883777899057
1401 1 7.3316135173 31.1347174409 1.62453446817
1407 1 5.89786463402 30.606745908 3.51409010243
841 1 4.50005100733 31.1659484235 1.59621261042
1403 1 7.23782526311 28.6607999732 2.85608954859
1961 1 10.0410578177 31.1190504318 1.63181328706
1963 1 10.0119199375 28.5942819888 2.90900264385
1966 1 8.62979809603 29.2102661039 0.963790534047
1967 1 8.66200239407 30.5155537286 3.54869782699
2526 1 11.402447623 29.199364323 0.986269744779
2527 1 11.4177638934 30.4869599617 3.56218420644
2521 1 12.7944437685 31.1262983825 1.65096688043
2523 1 12.778951015 28.5787228871 2.9013643051
3086 1 14.1708105399 29.1759715708 0.970484009339
3087 1 14.1806973653 30.4876907217 3.5535589054
3081 1 15.584522907 31.0636630309 1.62869227562
3083 1 15.5275118358 28.5251829919 2.88840237782
3643 1 18.4157381895 28.5573703043 2.8541662228
3646 1 16.9458334834 29.0695566144 1.00064375411
3647 1 16.9303583192 30.3685095725 3.52572394732
3641 1 18.2751428489 30.9835223071 1.61512596844
4203 1 21.1269778733 28.3386937334 2.91462724439
4206 1 19.8390066294 29.2030715517 0.920077330834
4836 2 21.9072179642 30.4217643886 1.30888477235
4207 1 20.0289763026 30.4885216989 3.34883877983
4761 1 22.7536264475 28.2632841234 1.15952181317
4768 1 22.92570257 29.7960234532 3.2810018843
5327 2 26.2187236966 28.629550861 1.3125064972
5328 1 24.45960343 30.2435090816 1.28386220423
4846 2 25.1226011597 30.4080964745 3.66470842825
5323 1 27.2190845258 29.0433585054 3.48406423117
5321 1 27.3140998056 30.4559570801 0.845430436072
5881 1 29.9831518852 30.2125260154 0.89930745889
5883 1 29.9734932517 28.9340210229 3.45582446955
5887 1 28.580775706 28.273380582 1.54146839932
5888 2 28.6584994098 30.9137999488 2.81978493415
6441 1 32.8275171118 30.1704466215 0.899737780893
6443 1 32.8182122111 28.8993605079 3.43958472888
6447 1 31.375917769 28.2802727619 1.54160642585
6448 1 31.4205777615 30.8198855149 2.80481708768
7007 1 34.2308308311 28.2482105506 1.52914743525
7008 1 34.2648312728 30.7810217971 2.80407871244
7001 1 35.649454227 30.1455018376 0.874651486077
7003 1 35.6549084196 28.8463718031 3.44156842402
7567 1 37.0216866506 28.2435422603 1.50369780872
7568 1 37.0653777908 30.749322008 2.79236734883
7561 1 38.4284069334 30.1075253512 0.833967684287
7563 1 38.4209148658 28.7988916951 3.43208519988
8121 1 41.3117657547 30.1585540765 0.848428657192
8123 1 41.2035043663 28.8209506635 3.45473080666
8127 1 39.8738867892 28.2566662028 1.50951153922
8128 1 39.769143469 30.6741040395 2.77637897519
289 2 44.907635186 27.857705971 1.77983593938
8681 1 44.0933046841 30.15749119 1.05401697036
8687 1 42.540634665 28.1716359731 1.52948297882
8688 1 42.5786490021 30.7773966598 2.77981623308
8683 1 43.7337662896 28.777412261 3.49715572667
281 1 0.930302552051 32.5938392609 2.42097976494
353 1 1.77492291323 34.8711958882 2.89874705073
919 1 3.2292997408 33.0726555141 2.358564753
918 1 1.56332968327 34.0009764836 0.377531322225
344 1 2.40489507602 31.6699045024 0.435735350061
916 2 3.34367551916 35.2713448864 1.00587949549
912 1 4.48066320558 33.4647551946 0.324875225209
913 1 4.71317610258 34.9420360936 2.87703538976
1472 1 7.31261676404 33.6648699967 0.38968121059
1473 1 7.32976400014 34.9501808866 2.91895115229
1479 1 5.96929016505 32.9860544062 2.29208080422
2032 1 10.0604036295 33.6542599351 0.377593709532
2033 2 10.0945933726 35.0954251726 2.89292691954
2039 1 8.72767247718 33.057461531 2.31419475552
2599 1 11.4036010357 33.0363644442 2.32521675677
2592 1 12.8041688815 33.6118336946 0.404514697294
2593 1 12.8227037591 34.9233398141 2.9285328751
3159 1 14.2287176154 33.0216553491 2.31773352161
3152 1 15.6094543365 33.6207620148 0.368841628057
3153 1 15.7144604412 34.9289264131 2.9026172087
3712 1 18.526238065 33.7601590771 0.379954223613
3719 1 16.9994944316 32.9734569322 2.24470140791
3713 1 18.4594931244 34.8040162413 2.87458059038
4279 2 19.5591779149 32.7878599637 2.35992482204
4839 1 22.0469426484 32.4932039021 2.53000643058
4272 1 21.0239057079 32.9099129329 0.381300139924
4837 1 20.7327253137 34.7124575752 1.97591330024
4273 1 22.4265136549 34.7033056044 3.71651081651
4838 1 22.9645931228 34.7462969736 1.19999332876
4832 2 24.4500531143 32.8959559408 1.93225248898
5396 1 25.7967403498 32.2629008059 0.123951368168
5397 1 25.7822260791 34.8226525347 1.23192719591
4833 1 24.635840864 35.1670787343 3.35265192597
4824 1 23.2671587156 32.1757255993 0.0353935732356
5392 1 27.1272689415 32.8337707713 2.12453981527
5952 1 30.0545008352 32.7650306827 2.16079798418
5956 1 28.6616347641 32.2404988621 0.216167281958
5957 1 28.6472205858 34.6393076729 1.49118514457
5393 1 27.2705984041 35.2745357326 3.37492770253
5953 1 30.0951315104 35.2390798121 3.40443250611
6512 1 32.877930189 32.7021899748 2.16182997111
6516 1 31.4468406012 32.0977644645 0.258389628429
6517 1 31.5056269147 34.6258646438 1.51243326593
6513 1 32.925007741 35.2425785983 3.42179693865
7076 1 34.2682815574 32.0671513675 0.24174430319
7077 1 34.3127803746 34.6074376438 1.51287881414
7072 1 35.6873051348 32.68410871 2.15874789368
7636 1 37.0709825102 32.0401623979 0.223578876183
7637 1 37.0990674911 34.6046004194 1.53023072211
7073 1 35.7093795807 35.2445890684 3.43892413631
7632 1 38.4305648516 32.6563024512 2.14639983387
8192 2 40.983070533 32.456889558 2.10704961744
8197 1 39.8296209409 34.5535421981 1.5583740963
8196 1 39.8580259348 32.0262489667 0.179222894033
8193 2 41.192020736 35.2801338704 3.49744420383
7633 1 38.4930499247 35.2563808751 3.47350037928
358 1 45.3332411238 32.2123965139 0.46316387757
8753 1 45.4522015597 34.6878063073 1.59139337687
8752 2 44.039962137 32.7494327832 2.25562984125
8757 1 43.4733570917 34.510919889 0.451295850385
8756 1 42.7895989566 32.121354443 0.214625007793
8761 1 43.4648967473 35.2415617536 2.90912429714
351 1 0.271178765264 38.396173698 2.26764357572
917 2 2.18546706511 37.3590621639 3.28023514527
414 1 1.42254503896 36.8154593344 0.98020779849
989 1 2.8695557669 39.2542655693 2.2977890531
911 1 4.32736554989 37.3386348698 1.78864650243
1471 1 7.29289432079 37.4674202213 1.62749722232
1476 1 5.91743731598 35.5507028031 0.964581804991
1477 1 6.00494866546 36.8936438284 3.53592894318
1549 1 5.80617290739 39.2582372382 2.30749632954
2031 1 10.1133482115 37.5180552244 1.66531910069
2036 1 8.69536341367 35.5876456246 1.00163126607
2037 1 8.68752908193 36.904780836 3.57396700364
2596 1 11.4649007622 35.5706906677 0.994632525829
2597 1 11.5649580893 36.9089015874 3.56750730398
2591 1 12.8370780636 37.4902810795 1.59798801167
3156 1 14.1992294679 35.5154547029 1.0073578294
3157 1 14.3078802203 36.8417612234 3.40328858876
3716 1 17.0086350174 35.535439349 0.968176268786
3151 1 15.5439784677 37.407259045 1.50645013261
3717 1 17.2951130978 36.8269624482 3.63576877761
3789 2 17.5837382056 38.3274442511 1.79991571074
3225 1 15.8531826098 38.9178363435 3.37751565221
3711 1 19.1163356479 36.5091672539 1.26783461071
4276 1 21.5367559838 37.1207894276 1.24312033192
4277 1 20.6738407553 36.515636501 3.59438603913
4349 1 19.5662627287 38.5326390409 2.79169373078
4271 1 21.7919983863 39.1794726924 2.83179525288
4902 1 23.1052065901 37.0939056468 3.03897083153
4831 1 24.3378409563 36.7682943693 0.90092594095
5398 1 25.8920041294 37.2012581035 2.76547075187
5466 1 25.9845022761 38.5918087529 0.413396930286
4907 1 24.4229460206 39.1362602157 2.23272987298
4906 1 22.8863085247 38.7663425793 0.0111601988234
5391 1 27.3150119734 36.5791766124 0.866029474332
5462 1 27.4039841669 39.1025990796 2.20806364597
5951 1 30.1272758606 36.5379294923 0.873863467818
5958 1 28.7215458774 37.1421781783 2.78595888375
6022 2 30.1709585897 38.9586583674 2.10096621898
6026 1 28.7340952996 38.4580755291 0.239287033653
6511 1 32.940443481 36.5281465565 0.868103974698
6518 1 31.5604956225 37.138691783 2.77923307928
6582 1 32.945661876 39.0851389678 2.15180635836
6586 1 31.565884163 38.444225166 0.229974179013
7146 1 34.3433441686 38.4587626368 0.243487901796
7078 1 34.3376209787 37.1694730695 2.78507174549
7071 1 35.7229307939 36.5323349673 0.869883431205
7142 1 35.7449391259 39.0981226129 2.16821463852
7638 1 37.1017337731 37.1628977873 2.78400009396
7706 1 37.1630824027 38.455090925 0.254943040924
7631 1 38.5196661318 36.5004672359 0.886878765787
8191 1 41.4764050602 36.2124886816 0.942235787227
8198 1 39.8525564556 37.1588110384 2.74354165828
8266 1 39.9764759676 38.3683843235 0.232105151687
7702 1 38.5494088285 39.0911333412 2.19408833386
8262 1 41.2131833711 39.1417090459 2.074066897
356 1 45.6161181763 36.1924483443 3.62350099907
8751 1 44.3054243991 36.8085425256 1.36119626598
8758 1 42.3150114429 37.3339301447 2.91625897616
8826 1 42.5969732013 38.0692572609 0.0834550473637
8829 1 43.6408202163 39.1440865073 1.80122707638
423 1 1.27106860288 41.1419716333 2.99001937012
986 1 2.86801479025 41.6907674932 1.00963399249
422 1 1.44525096552 39.5691065497 0.453373543903
8885 2 0.265617974044 41.6810754136 1.06276486565
987 1 2.846538864 42.9154979095 3.65055095268
982 1 4.38280185327 39.9214372215 0.452156342039
983 1 4.35923175002 41.1455300547 2.85469624917
1542 1 7.2204996565 39.9533488617 0.390489259674
1543 1 7.19065861254 41.2206048229 2.88478788324
1546 1 5.79142305351 41.8158226084 0.986982081067
1547 1 5.77926125283 43.0229951224 3.6345483236
2102 1 10.0624582121 40.0319871548 0.386110495469
2103 2 9.91462811154 41.3205391661 2.85999949291
2106 1 8.59765581866 41.9044292952 0.980497732772
2109 1 8.66614821004 39.3608557558 2.2816720476
2107 1 8.58042222034 43.1882011815 3.57032448423
2666 1 11.4473885116 41.9248461942 1.01796463234
3229 1 14.047261324 39.4823518983 2.09540110667
2669 1 11.5192333472 39.4604009486 2.28880522122
2662 2 12.7247880908 40.00088089 0.168465301557
2663 2 12.9856820184 41.4438267959 2.9790112553
3226 1 14.2310952201 41.8682347069 0.880300586406
3222 1 15.9523033591 39.8586695688 0.529762560955