ITEM: TIMESTEP
10000
ITEM: NUMBER OF ATOMS
8960
ITEM: BOX BOUNDS pp pp pp
0.0 45.68
0.0 51.0717926061
0.0 44.6878185303
ITEM: ATOMS id type x y z
569 1 3.21278644923 1.10116583828 2.24552473706
2 1 1.743980689 1.74024126667 0.257143251942
566 1 2.99736439946 3.72315828847 0.940962159996
3 1 1.91924760551 2.9840654802 2.90881284486
8465 2 0.835707570594 0.891998037806 2.06922382576
8401 1 0.0280642904133 3.06252131266 1.58446244066
562 1 4.47352814109 1.70966463846 0.344295119667
563 1 4.49025262331 3.06642077585 2.86439181082
1122 1 7.25818427034 1.76067238504 0.354078406035
1123 1 7.21916618202 3.05327719337 2.88232634681
1126 1 5.84587049671 3.69697921516 0.967250005083
1129 1 5.87522267616 1.12295957229 2.26200755641
1682 1 10.0374262434 1.80287007423 0.339163595274
1683 1 10.0197990286 3.10210155861 2.87643226268
1686 1 8.61440516712 3.7221698474 0.979998020651
1689 1 8.65138389455 1.18032731555 2.26747953511
2246 1 11.3752707314 3.78478348311 0.968020259507
2249 1 11.4058095773 1.22750907602 2.25496171682
2242 1 12.776224753 1.88641046809 0.324282618339
2243 1 12.768572775 3.16021497109 2.88948532721
2809 1 14.1542513237 1.24939740684 2.26322456503
2806 1 14.1426658324 3.80591846735 0.988216174791
2802 1 15.4717837089 1.93254887342 0.349830285697
2803 1 15.6098797484 3.10418928425 2.81297600137
3362 1 18.3544753834 1.73011952897 0.170712121052
3363 1 18.2606461646 2.81664339572 2.90295817949
3369 1 16.9116567278 1.10554971998 2.2164570805
3366 1 17.1471087274 3.73927814311 0.855361382124
3929 1 19.6598030519 0.9157655334 2.2651452385
4489 1 22.2711241288 0.909171901371 2.75087695786
3926 2 19.7710369469 3.19475718552 1.0930384621
3923 2 23.035688706 2.6602321541 1.42743421606
4482 1 24.5760665439 0.825368579889 2.30904808557
5047 1 25.7092980667 2.78518330249 1.5867948324
5046 1 25.7293710277 0.22877375467 0.150549975537
4486 1 23.2883400262 0.166641661161 0.341559451044
5042 1 27.2291841824 0.801250367257 2.16317834611
5043 1 27.3248312941 3.29133418098 3.51781326013
5602 1 30.0922835652 0.7987882851 2.19677095072
5603 1 30.0819438476 3.30380629178 3.46898979236
5607 1 28.6310409435 2.67995975317 1.59019894284
5606 1 28.6648398299 0.202407057505 0.263138805296
6162 1 32.8957113979 0.793378365499 2.19791794903
6163 1 32.8694153296 3.3381967253 3.4408451852
6167 1 31.4799622817 2.70883682707 1.55542294332
6166 1 31.4865537387 0.173274891711 0.282930360643
6726 1 34.3166298525 0.144089547233 0.301773034548
6727 1 34.324202015 2.65818285979 1.5735776447
6722 1 35.74667129 0.770023136854 2.2044818404
6723 1 35.736962238 3.32701730959 3.45617486816
7287 1 37.148890354 2.68786084726 1.5535013213
7286 1 37.1492513843 0.136241897098 0.304584406551
7282 1 38.59834039 0.771405765304 2.18180935063
7283 1 38.566314439 3.34166250363 3.41796696929
7842 1 41.4450867844 0.863618648139 2.22844302927
7843 1 41.3815500667 3.37046414121 3.36683117026
7847 1 40.0106556642 2.67776409707 1.53447381371
7846 1 40.0324037538 0.0814455945129 0.273267587132
8407 1 43.0644451215 2.65446816949 1.10682074641
8402 1 44.1844850001 0.833582716538 2.55473679658
8406 1 42.7690142188 0.0885185364819 0.456500107989
8 1 45.0999308238 0.887610705699 0.16943001971
8403 1 43.8196464394 3.34001640328 3.24213469194
6 1 1.48946177401 5.55851455237 1.62791979428
639 1 2.97184506979 7.57237917472 2.19662203352
567 1 3.05530549614 4.96817425573 3.47608564156
1 1 0.239729415381 4.58345468019 3.43376295309
561 1 4.40846357812 5.63495578237 1.58281053382
1121 1 7.22859314954 5.64059787127 1.58581464022
1199 1 5.82937411775 7.54837460974 2.18596370446
1127 1 5.86987205727 5.01644454671 3.48866276972
1681 1 9.9701446942 5.68292302908 1.59455435871
1759 2 8.58864811586 7.65175696988 1.99936377943
1687 2 8.60376396602 4.91010241279 3.55088779376
2247 1 11.3550426812 5.08395938025 3.50164792133
2319 1 11.3513061873 7.62046457788 2.19829153054
2241 1 12.7645526485 5.72370144798 1.59027760099
2879 1 14.2117033248 7.61998206379 2.20195231537
2807 1 14.2042968767 5.0631570289 3.4750312542
2801 1 15.5998406425 5.66002764932 1.54781871248
3361 2 18.1951125748 5.84547441941 1.59381560268
3439 1 16.8929666587 7.61977613862 2.23989897736
3367 1 17.0046764417 4.93777799139 3.41538179245
3921 1 21.8840421836 6.18108079712 1.70223494554
3927 1 19.8863222269 4.57919857847 3.26199571873
4559 2 20.6012305013 6.66356312471 3.51377874802
4481 1 24.1162746181 4.73931755149 0.677156494861
4552 2 23.8384660879 5.99695716832 2.7373107305
5048 1 25.9237569539 5.10005670653 2.85212678191
5116 1 25.6716201625 6.60244076152 0.836377598753
5119 1 25.6535284925 7.4062693076 3.70357978923
5041 1 27.2109614974 4.60440001547 0.956736550802
5112 1 27.4297682437 7.15138364946 2.21745159108
5601 2 29.9161132252 4.46162223852 0.848484852279
5608 1 28.7160664087 5.21842020285 2.83420791602
5672 2 30.0566903309 7.3125130823 2.12856250817
5676 1 28.6345605365 6.47639219278 0.302382824262
6161 2 33.0156096504 4.55679646331 0.926286212682
6168 1 31.4017863825 5.22107894488 2.77237401254
6232 1 32.8375368388 7.08032472078 2.1843660218
6236 1 31.4445904506 6.41597638541 0.311567162581
6796 1 34.2680197773 6.473268278 0.304625674226
6728 1 34.288114939 5.22491774281 2.83860238548
6721 1 35.7105229809 4.5898195081 0.938539328638
6792 1 35.6852960011 7.13050134163 2.18958407266
7288 1 37.1429676895 5.26220421368 2.80954442446
7356 1 37.1197150735 6.49513839248 0.313214693041
7281 1 38.5654353526 4.61886802751 0.917491275286
7352 1 38.5763662864 7.21784207068 2.15110104152
7848 1 39.9673562599 5.31146725279 2.77377924753
7912 1 41.5464035797 7.47720041122 2.0646904333
7916 1 40.0104393237 6.56206033598 0.290436928027
7841 1 41.4067221726 4.54890333197 0.933398416998
8408 1 42.7243457878 5.42792302896 2.76421622434
8472 1 44.4125594095 4.97731146318 1.03022887375
8404 2 45.0908544187 6.52477812943 2.84575039188
8476 2 42.6104890051 6.33863794377 0.280050453092
76 1 44.1836989295 7.83858853292 0.714646554762
72 1 1.36003122658 8.47393799682 0.398104580014
73 1 1.64693892922 9.5863268425 2.86155949409
636 1 2.99582220564 10.1991818566 0.849036648336
637 1 3.19562177736 11.3686236271 3.51491488463
632 1 4.33272018291 8.20632560452 0.287974994065
633 1 4.41744625198 9.44663390714 2.78597022637
1192 1 7.14395061401 8.22459581804 0.247557097801
1193 1 7.19316091174 9.46932467964 2.83051064927
1196 1 5.75297207287 10.143804358 0.913371260961
1197 1 5.77978551322 11.375946622 3.41873154884
1752 1 10.0140387964 8.26774255888 0.249005526789
1753 1 9.97506215837 9.50547189323 2.81994621594
1756 1 8.56219400626 10.1082672608 0.928419499761
1757 1 8.56104219324 11.3859084782 3.4679266125
2317 1 11.3592170035 11.3751368331 3.49334639319
2316 1 11.4090965357 10.1581959441 0.902958416777
2312 1 12.7785528153 8.26443926438 0.286898676955
2313 1 12.7813497939 9.5108687426 2.84094866457
2876 1 14.1984395438 10.1311757862 0.960466511301
2877 1 14.2287050314 11.3881534178 3.55567410857
2872 1 15.6210537345 8.23333991248 0.27721587979
2873 1 15.6151190337 9.55580046274 2.89682509023
3432 1 18.4793209208 8.236140268 0.504572288705
3433 1 18.345186166 9.45173724511 2.79424449287
3436 1 16.9642753958 10.1149924925 0.978893559383
3437 1 17.2011690651 11.423072975 3.66628041833
3999 1 20.6220477349 8.25314638288 1.93275586714
3993 1 22.1421483855 10.0340003042 2.34297851387
3996 1 19.8726310661 10.2680736681 1.01341277608
3997 1 20.0834790663 11.0945785968 3.17454706391
3992 1 21.9855898471 8.78158952949 0.076843091114
4557 1 23.5772254515 8.12546499559 1.79576580821
4551 1 24.0656326824 10.723830828 0.967936500783
5117 1 25.8665494506 9.02362158566 1.46238173334
4554 1 24.632909156 9.59157939836 3.48394446288
5118 2 23.8153182341 11.6512422731 3.22929628536
5111 1 27.0432656387 11.0991789751 0.978607504969
5113 1 27.1514486217 9.58720285227 3.43788056331
5671 1 30.0786949341 10.9258698959 0.886566488599
5673 1 30.1098104088 9.57245378329 3.45697155939
5677 1 28.6126654285 9.11714738257 1.52373942524
5678 2 28.7546985597 11.2642279094 2.83077533947
6231 1 32.8584504556 10.9294825402 0.893497984066
6233 1 32.8352856517 9.6361968409 3.460210377
6237 1 31.502184762 9.0185750198 1.51657433898
6238 1 31.4324055435 11.5524780592 2.78609768937
6797 1 34.2266660695 9.01233535126 1.569847786
6798 1 34.2205255881 11.5648660643 2.82649254847
6791 1 35.608117096 10.9283643056 0.898120044263
6793 1 35.6389291226 9.65614451908 3.46508837562
7357 1 37.073727615 9.06744632302 1.55717303207
7358 1 36.9937391135 11.5788112594 2.80981618522
7351 1 38.3858045754 11.0089255517 0.841661915565
7353 1 38.4604562087 9.68151210527 3.42676376332
7911 1 41.1859662411 11.2977052522 0.730027528259
7917 1 39.976747028 9.21180749526 1.49103058163
7918 1 39.7064368688 11.5916807585 2.76077736635
7913 1 41.3914909704 9.8413988007 3.36307063366
8477 1 42.9733157753 10.0103327518 1.35378232151
8473 2 45.1809149853 9.38431809813 2.24460978349
134 1 45.0895394743 10.1415438754 0.115076242466
7914 2 43.210375969 11.53094142 3.62556752749
8474 1 45.3055010146 11.7244314087 2.23154824248
71 2 1.78932616187 11.9773173566 1.89610559275
706 1 2.0978545225 14.1351526389 1.12285289023
149 1 1.6931794308 13.4334642297 3.71212013501
709 1 3.9347263486 14.9310177322 2.43422314542
631 1 4.31655210136 12.2274435419 1.51107778695
1191 1 7.17244849094 12.0046225637 1.51938916914
1262 1 7.1839076184 14.5463759072 0.200906590523
1269 1 5.92472898317 13.9437394036 2.09320233619
1751 1 9.97552111692 11.9998315947 1.56371115003
1822 1 9.99850792074 14.4931689292 0.266598960389
1829 1 8.57290602246 13.9193308011 2.1701287515
2389 1 11.3624549765 13.9078197152 2.21733261469
2311 2 12.8029252578 12.0642554135 1.7191513895
2382 1 12.7768037292 14.4842016922 0.321862758582
2949 1 14.2053124476 13.9208829349 2.27157669178
2871 1 15.6098307322 12.008542312 1.66588154022
2942 1 15.5617868162 14.5371617467 0.373495430438
3431 2 18.2687894937 12.0473025196 1.5641362809
3502 1 18.4357301886 14.4868177099 0.430707362498
3509 1 16.9910248571 13.9346748991 2.31341824809
3991 1 21.8987624626 12.4807365255 1.90205701804
4069 1 19.925289162 13.7803698096 2.49142290594
4062 1 21.5159482533 14.6192157825 0.189865493964
4622 2 23.5522720019 14.5005149356 2.0235930633
5182 1 25.6623164888 13.0694162045 1.96312545272
5187 1 25.3606758175 15.6604916913 1.295256568
5742 1 29.9577049901 13.4461479948 2.15537207364
5747 2 28.7323534195 15.5539698497 1.46866213414
5746 2 28.7990850636 12.7480699616 0.0570805248395
6302 1 32.807714539 13.4914445308 2.19283957841
6306 1 31.4322456697 12.8529284687 0.288517299214
6307 1 31.3923791217 15.3895868046 1.57646467245
6866 1 34.215906983 12.8616718882 0.280910325044
6867 1 34.1856115221 15.4153652082 1.5931957201
6862 1 35.5767441304 13.5018844189 2.21503358643
7426 1 36.9351471017 12.8923537731 0.259130262447
7427 1 36.8997537041 15.4317557279 1.58228845913
7422 1 38.3094275241 13.5169823578 2.13831689585
7982 2 40.9607180656 13.4688261096 2.3451763811
7986 1 39.7648972958 12.99896003 0.165908304094
7987 1 39.6525904848 15.4507021543 1.61593051797
77 1 43.26899338 12.7535805 1.54272626051
141 1 45.2759821162 14.7047586507 1.8936532208
8547 1 42.4459555001 15.2824810504 1.72300416072
147 1 43.9028158379 15.6993212091 3.55346736746
143 1 1.75696121488 15.9495960413 2.80406602996
8543 1 1.01041806544 16.6210564592 0.66722469014
213 1 1.90335426147 18.5074960075 2.64299345203
703 1 3.40087764365 16.7610088823 0.993523156689
218 1 0.124971356385 18.7312314307 0.814093101607
710 1 3.80754408041 17.1866223879 3.30950536948
701 2 3.81996647117 19.0825474282 1.68758302379
1263 1 7.2303304152 15.8608525201 2.8264163943
1266 2 5.82761228903 16.3923655679 0.933120168337
1261 1 7.28998310969 18.3081177932 1.57462786774
1267 2 6.00420733961 17.8549878972 3.70694773448
1821 1 9.9554024249 18.3527466305 1.54738808814
1823 1 9.97809119221 15.815925364 2.83527468036
1826 1 8.58555728594 16.4156331762 0.883393116036
1827 1 8.62989169669 17.7435497436 3.50621859339
2386 1 11.3651869468 16.4243359592 0.920417327076
2387 1 11.367167362 17.7329525919 3.49181641938
2381 1 12.7463089014 18.3411269536 1.57582002955
2383 1 12.7674753468 15.8101428631 2.86939756848
2946 1 14.1572468135 16.4381275989 0.96089966706
2947 1 14.1445108168 17.7443726956 3.5068119363
2941 1 15.5794596569 18.3534460385 1.61795798088
2943 1 15.5645208913 15.8421353227 2.87916031853
3501 1 18.3498420154 18.384802766 1.58700919075
3503 1 18.365790816 15.7961564754 2.9280218713
3506 1 17.0151876814 16.4327629133 0.991259405384
3507 1 16.993743387 17.7355756145 3.54432672766
4063 1 22.6428612899 16.4578250714 1.41326064848
4627 2 20.7571656256 16.0832357463 2.96896236832
4061 1 21.0419226097 18.3020867538 1.76190604804
4066 1 19.8003416336 16.3532413054 0.974073796162
4067 1 19.5755869928 17.8420567052 3.60960555044
4628 1 22.5451594123 17.8869517248 3.57284791546
4621 2 24.6088843488 17.7055755252 0.740690659839
5188 1 25.8759745685 17.8192949131 2.8308541606
5256 1 26.0216878734 19.3311076816 0.256538208287
4623 1 24.495642821 15.9514687225 3.59795843
4692 1 24.3402461504 19.6188288569 2.19932230487
5181 1 27.2033567043 17.2497996273 0.909913942988
5183 1 27.182641703 15.8385752924 3.38017147782
5741 1 30.0373818645 17.3498457897 0.918254419349
5743 1 30.0066997106 16.0177824199 3.48994156554
5748 1 28.5883689121 17.853686024 2.85307319211
5816 1 28.5549289173 19.215060231 0.256071417361
6301 1 32.8035099368 17.3151681622 0.926849428542
6303 1 32.8044921543 16.0285706679 3.49960150405
6308 1 31.4186871022 17.9253511509 2.85763706636
6376 1 31.3933399558 19.2335345053 0.264838482918
6868 1 34.1919074998 17.9385392121 2.8616519659
6936 1 34.1618348631 19.2334166279 0.241443257329
6863 2 35.5537953171 15.9503948524 3.64903123808
6861 2 35.5239843416 17.3311149612 0.919613174919
7428 1 36.8540887052 17.9534770196 2.85975520018
7496 1 36.8878929824 19.2377173581 0.249764114011
7983 1 41.0443900761 15.9174995714 3.55327874594
7421 1 38.2554981888 17.3518740365 0.961888376765
7423 1 38.2364550113 16.0497531063 3.50156911297
7981 1 41.1297125019 17.2859293443 1.09823840322
7988 1 39.6435486464 17.8712716245 2.90749122976
8056 1 39.7167558419 19.1999518389 0.262650530359
8610 1 43.91863844 17.1246386042 1.14912516311
8544 1 42.5893514739 17.7958575108 3.20516302265
8616 1 42.4153782383 19.1802332731 0.412262026674
779 1 45.4712039184 17.4620557926 2.9543881154
8548 1 43.8793709363 19.4677777473 2.15254704703
776 1 1.953236327 20.4121675586 0.853587802462
220 1 0.368434612684 20.3866676646 2.77242812369
216 2 1.10503138998 22.3015153703 1.51499972952
772 1 4.38206568534 20.9226913074 0.41640552396
773 2 4.57219309898 22.0039833301 2.81569153728
1332 1 7.12529447555 20.8330074985 0.301570054243
1333 1 7.19291256065 22.2305477415 2.86493795334
1336 1 5.81368151858 22.8218480431 0.983827862594
1339 1 5.90067383689 20.164585479 2.25928107408
1892 1 9.94856702414 20.8798024768 0.281968743132
1893 1 10.0128160645 22.2042792702 2.84400933326
1896 1 8.54887262733 22.7965978075 0.943047800763
1899 1 8.58011708079 20.2952449562 2.20063281112
2459 1 11.3426676841 20.2510793679 2.19619931142
2456 1 11.358106496 22.798530569 0.91713889274
2452 1 12.7660304576 20.8768202569 0.303958033032
2453 2 12.7483949265 22.116114148 2.75679278736
3016 1 14.1079709851 22.7990927686 0.9365941005
3019 1 14.1356742854 20.2126650967 2.22741372316
3012 1 15.5136397329 20.8615380732 0.30134365655
3013 1 15.4216592348 22.1644115894 2.93106374571
3572 2 18.459855354 20.488745317 0.196005246758
3573 1 18.2214716337 22.352073548 2.99800157537
3576 2 16.5934881657 22.7249991571 1.10172280599
3579 1 16.9525879958 20.3434883546 2.21162400417
4697 1 22.1352089141 20.5000787212 1.86319269844
4139 1 19.6765788565 20.4149208955 2.3055932739
4691 1 22.4721205452 22.961309274 0.854017792442
4133 1 21.7304508121 22.0782118819 3.69153890534
4136 1 20.3744931599 22.7689307536 2.02507183522
5257 2 25.9511019647 21.540733833 1.57207617069
4693 1 24.0171382004 22.0919712143 2.60799764694
4762 1 24.8544240466 23.282727662 0.201010712765
5252 1 27.2554197864 19.7906764909 2.27354001164
5253 1 27.0958788997 22.4639696145 3.43762767751
5812 1 29.9826643737 19.8006011758 2.20251377762
5813 1 30.0031519185 22.3735376578 3.46818340628
5817 1 28.6015658986 21.7012440682 1.56350461474
5251 1 27.2882629145 23.5614088784 0.946666406054
6372 1 32.8055319588 19.8392015942 2.18790191472
6373 1 32.7811324747 22.4057389994 3.44848273051
6377 1 31.3709479733 21.7414810658 1.5365902976
6937 1 34.128717479 21.7642107496 1.49640184175
6932 1 35.5202429043 19.8612938021 2.17062338896
6933 2 35.5163454243 22.4857620427 3.29866358395
7497 1 36.9273090637 21.7521762223 1.49453781874
8052 1 40.9545367569 19.7026953978 2.23335701985
7492 1 38.2571705144 19.8297414263 2.18603774128
7493 1 38.2615983492 22.4108006988 3.44639610618
8053 1 41.0544631773 22.3409549286 3.44145419027
8057 1 39.7147386774 21.7219844627 1.53027399575
8617 1 42.4804988139 21.4316210425 1.74494150668
8604 1 44.8097422513 21.0643649271 0.712219453602
8680 2 43.3230334616 22.9339836141 0.368434042987
8613 1 44.0668574778 21.8009438128 3.56365268102
211 1 0.780231635555 25.9706307935 2.66616403095
849 1 3.1338258397 26.5096368322 2.33236631319
777 2 2.16253566586 24.3220372437 3.64934304002
219 1 2.07069298153 24.3318738311 1.05684457433
282 1 1.71879744707 27.3398457103 0.749592813358
771 2 4.50293388791 24.7830527383 1.35536015042
1331 1 7.19030641957 24.734652635 1.67085589043
1409 1 5.87530099762 26.6656073986 2.30932996903
842 1 4.4713079364 27.3587660514 0.435446766618
1337 1 5.74514135264 24.1449290272 3.63675756004
1402 1 7.26689175538 27.3043292296 0.373067880525
1891 1 10.0188007267 24.6969929109 1.59550379439
1969 1 8.72142995716 26.677606016 2.19971626438
1897 1 8.6346194431 24.1036789883 3.51475088967
1962 1 10.0389346279 27.2964699719 0.307663837088
2529 1 11.3917158969 26.6547214153 2.25812847903
2457 1 11.4027560593 24.0953606141 3.52957346007
2451 1 12.7543952473 24.7233515197 1.60665112875
3089 1 14.1121940908 26.6790833914 2.26347978156
3017 1 14.0821132008 24.103067325 3.55643051452
2522 1 12.7661041759 27.3120692943 0.327531772584
3011 1 15.3514127738 24.7506774244 1.60701769628
3571 2 18.8407488056 24.5803420121 2.15663537842
3649 1 17.0043673926 26.5274275494 2.12248789921
3577 1 16.7830344042 24.1055328353 3.48753185823
3082 1 15.4911645013 27.356601886 0.338702610206
3642 1 18.3974167207 27.4549163217 0.209096108267
4131 1 21.1274870331 24.9395361689 1.28910793898
4209 1 19.7230926528 26.7659460692 2.16710307385
4202 1 21.8973198647 26.4969032263 2.9684940868
4208 1 21.470371738 27.4370302243 0.53505873977
4698 1 22.7083415841 24.2106110162 2.97612992238
5329 1 23.4999227831 25.5088952929 1.12910795591
5326 2 25.8851376056 25.2320462972 0.711832440932
5811 1 29.9719766293 23.6628822149 0.906351110577
5322 1 27.2679314349 26.2475325463 2.24026564722
5818 1 28.6740768645 24.2749736064 2.84962532886
5882 1 29.9357896889 26.2526764889 2.20610466389
5886 1 28.5320338357 25.5528544234 0.286365176533
6371 1 32.7250687514 23.6916773824 0.885238833964
6378 1 31.3647768771 24.3247711345 2.83371984094
6442 1 32.7260445942 26.2558181112 2.19140853955
6446 1 31.3167770913 25.6168219248 0.267626274373
7006 1 34.1209134322 25.6101579899 0.25838926773
6938 1 34.1064893834 24.3494945227 2.80399577036
6931 1 35.5241904665 23.6906255794 0.88288072229
7002 1 35.5170527242 26.2323872721 2.17541607841
7498 1 36.9194107976 24.3344472711 2.80432037506
7566 1 36.9341014718 25.5904986873 0.262220946857
8051 1 41.1370689287 23.6230508776 0.907832416075
7491 1 38.3341485855 23.6656725539 0.90295469216
7562 1 38.3260007296 26.1964524448 2.18796896845
8058 1 39.7146880311 24.2691264607 2.82222157411
8122 1 41.1464859965 26.1454924455 2.25198113675
8126 1 39.7278164613 25.5804489142 0.296412852186
8611 2 44.7581860614 23.9584256733 3.16808747717
288 2 45.6225524894 25.6055547512 0.663550884351
8618 1 42.5413102956 24.0879475374 2.86018134277
8682 1 43.8886499025 26.1023986991 2.34265448672
8686 2 42.2860372979 25.7400626903 0.314379168232
286 2 1.00723363446 29.6092554642 1.03359200261
846 1 3.19577033898 29.2820238352 1.13102809527
283 1 1.28070262472 28.7158918141 3.17918597045
847 1 3.34702367044 30.6267882476 3.64090307056
843 1 4.4460942903 28.5259304949 3.07894211537
1403 1 7.31259399532 28.5743603473 2.94701920557
1406 1 5.90030456232 29.1856512724 1.0727966781
1401 1 7.32298950571 31.1237155657 1.63522732297
1407 1 5.97982215833 30.4584922562 3.616548888
841 1 4.67338949653 31.1202823962 1.73532764591
1961 1 10.06120107 31.1735156139 1.6353243864
1963 1 10.0878679765 28.6363870568 2.89576079276
1966 1 8.68485765708 29.219360942 1.00769958584
1967 1 8.69727422774 30.5380658046 3.56361934345
2527 1 11.4664454891 30.5717452656 3.53945195251
2526 1 11.4307085722 29.2507650542 0.965084025634
2521 1 12.8328579711 31.1885203442 1.60886194734
2523 1 12.7957360492 28.6186779521 2.89876423115
3086 1 14.1699911209 29.2589826275 0.967451265365
3087 1 14.2368209722 30.5333600192 3.53436596606
3081 1 15.5892245063 31.1690568468 1.60469349733
3083 1 15.5906147638 28.5435241439 2.85763431114
3643 1 18.2675189302 28.5017672728 2.80568665072
3646 1 16.9293985011 29.2311720165 0.938800365376
3647 1 16.9434441389 30.5132818442 3.53809063557
3641 1 18.2553908211 31.1423771949 1.57338671414
4203 1 21.1286459838 28.8502175292 2.96690144457
4201 1 22.2782151602 29.6638918372 1.03127195358
4206 1 19.7916846837 29.2861650341 0.960801281506
4207 1 19.4059097898 30.4611816288 3.49760911066
4836 1 20.8853829839 31.3021344882 1.74488817181
4767 1 23.558752709 27.8378420178 1.88762081213
4768 1 23.1424391549 30.6023699898 3.07377966876
4761 1 24.6608997842 30.254740297 1.2509721422
5327 2 25.9447938935 28.2910013693 1.45678162996
5328 1 25.7448850328 31.115604087 3.29728949116
4763 1 24.9650569166 28.8467497843 3.56342834547
5323 1 27.3186189213 28.8879248459 3.54963734485
5321 1 27.1580931108 30.1345032327 1.02860016819
5881 1 29.9379707468 30.0979615605 0.957059494931
5883 1 29.962332124 28.8185791488 3.52336004014
5887 1 28.55443898 28.1833162387 1.5723885961
5888 1 28.626603878 30.7749506676 2.92942127236
6441 1 32.7666392672 30.0807435048 0.953780510526
6443 1 32.7611277169 28.8102261874 3.49361846471
6447 1 31.3294833658 28.1753425396 1.57065325808
6448 1 31.3771129842 30.7398471909 2.88662058167
7007 1 34.1412356624 28.1583190172 1.55788661472
7008 1 34.1979717786 30.7213938432 2.86300265448
7001 1 35.559787306 30.0632688035 0.923819188367
7003 1 35.5430594885 28.7723584957 3.48771078306
7567 1 36.9334092284 28.1224222043 1.55494143889
7568 1 36.9299632913 30.6556127539 2.87854031654
7561 1 38.3191163914 30.0197396227 0.949104124586
7563 1 38.3242091875 28.7503805226 3.48637083486
8121 1 41.1522609972 29.9152746044 0.893624109316
8123 1 41.0823157185 28.6683609578 3.48426658253
8127 1 39.7085054367 28.0981495163 1.58037984588
8128 1 39.7229644537 30.6206410489 2.83450442677
289 1 45.182894824 27.9390142701 1.6089977612
8681 2 43.7008462516 30.0716062227 1.05722031087
8687 1 42.5791581651 28.0157755467 1.53541235839
8688 1 42.3440780058 30.5552164425 2.91952143158
8683 1 43.9097658868 28.8301561554 3.44197829243
281 1 1.73519109936 31.4792100158 1.92484421799
353 2 1.53667744936 34.0711550526 2.55925371854
919 1 3.49345201388 33.1061071902 2.26797270248
918 1 1.62773586588 33.4971071325 0.144884903924
344 2 3.37793376156 31.7157541271 0.0144741182712
912 1 4.72744647472 33.6860920439 0.346263750569
913 1 4.86812072061 35.0805793865 2.87510576665
1472 1 7.37026840263 33.7067955431 0.347607349571
1473 1 7.37157633568 35.063488082 2.9590156151
1479 1 6.07696516013 33.0833880689 2.29289499247
2032 1 10.0670604515 33.7409395092 0.343463517076
2033 1 10.0740051809 35.042251334 2.91737361928
2039 1 8.70527912772 33.1003357864 2.28545486665
2599 1 11.443094512 33.0993380984 2.25806404024
2592 1 12.8438142802 33.7384099491 0.318608593621
2593 1 12.8163357485 35.0074884685 2.84182074389
3159 1 14.2357955381 33.1067475177 2.25543215168
3152 1 15.6033442127 33.7175168152 0.331995472092
3153 1 15.6150558604 35.0572049974 2.84735346785
3712 1 18.3344999089 33.6672804745 0.370653734083
3719 1 16.9592112242 33.1061548557 2.27946434437
3713 1 18.3110479051 35.087963059 2.85439530545
4279 2 19.5803971605 33.0676437102 2.34969160785
4839 1 22.0316985031 33.3631337862 2.70073174345
4272 1 20.9699030473 33.4819416994 0.33834550308
4824 1 22.668353975 32.0300022252 0.357942276792
4838 1 23.0214184022 34.6873066409 1.0373321154
4832 1 24.3275435531 32.7772181615 2.13944951778
5396 2 26.0523050762 32.2070466586 0.713659464193
5397 1 25.7310835295 34.7915973602 1.7119395903
5392 1 27.3152697287 32.7978152658 2.41066203963
5393 1 27.2533777552 35.2672968494 3.55112592351
5952 1 30.0197683676 32.6960184508 2.29405839077
5953 1 30.0938118346 35.2757163365 3.56474711621
5956 1 28.5889933244 32.0139801575 0.456423893689
5957 1 28.6884991062 34.6867736517 1.70307206735
6512 1 32.8209681702 32.6488046794 2.25833481845
6513 1 32.8840712056 35.2133096488 3.52768570802
6516 1 31.4091326685 31.9948463963 0.367605294034
6517 1 31.4692169145 34.5934032118 1.64053519284
7076 1 34.1954368023 32.0053605188 0.317525509002
7077 1 34.241349043 34.5591152378 1.58901209073
7072 1 35.6120349768 32.6403179663 2.22087183464
7073 1 35.6670405051 35.1871848009 3.49021795785
7636 1 36.9896237852 31.9847396096 0.288870051736
7637 1 37.0720071172 34.5684552724 1.57346271025
7632 2 38.1964081086 32.4937953609 2.2616810394
8192 2 41.2665404122 32.3888836004 2.25306139902
8197 2 39.9022180071 35.0579839676 1.50434313023
8196 1 39.7469430094 31.8455849564 0.345360333741
7633 1 38.4593485132 35.1639474671 3.45766762283
8193 1 41.2133484939 35.3406945332 3.56632578698
8752 1 43.9100249173 32.3809651758 2.40698679364
8753 1 45.220493537 34.1921805856 1.63669479023
8757 1 42.470779762 34.4815293975 1.64911531637
8756 1 42.4633222509 31.9131179872 0.403408819294
358 1 45.3433333834 31.7226611591 0.493511870221
916 1 3.33590351552 35.390409171 1.03209427631
356 1 1.09905442978 36.0744777796 1.1545834759
351 2 1.52522641931 38.1124824448 1.91094198713
917 1 3.24926008463 36.9632908703 2.99160248804
357 1 0.488172434076 36.2720405094 3.34102232809
988 1 3.09698563577 37.8905538974 0.245831956242
911 1 4.93006738186 37.5901248851 1.62141622092
1471 1 7.387161721 37.6417418061 1.64969082231
1476 1 6.09293517531 35.6422368358 0.948999919234
1477 1 5.98064985912 37.0200266288 3.65987235515
2031 1 10.0780553907 37.6086121845 1.60639841378
2036 1 8.70591482395 35.6775966656 0.989211946766
2037 1 8.69428794843 36.9942186456 3.59033940751
2596 1 11.4412633079 35.6673401481 0.942468321959
2597 1 11.4872822766 36.9608019201 3.51457221099
2591 1 12.7973225958 37.6116404247 1.49656374734
3156 1 14.2403295477 35.6773938595 0.929190656784
3157 1 14.1171123962 37.0177589034 3.32749346694
3151 1 15.6304338984 37.6002447734 1.49937030943
3711 1 18.3674494219 37.570397287 1.4251004501
3716 1 17.0414959455 35.6281090316 0.927232149778
3717 1 17.0163314087 36.9904354092 3.3681328574
4837 1 20.1807107544 35.4441534514 1.49831276409
4276 1 22.1972204985 36.9884496746 1.05653168695
4273 1 21.9513255431 35.6490874182 3.37946728416
4271 2 21.8696290836 39.1372693276 1.87381438225
4348 1 20.344277684 38.1427375836 0.272995900784
4277 1 20.1370652621 37.2473569071 2.98245064147
4902 2 23.8801896139 36.5588207822 2.50106523967
4831 1 24.6046996106 36.7684008744 0.471012633815
5398 1 25.9534610076 37.1956809851 2.81895289026
5466 1 25.9266436559 38.617436761 0.183829222835
4907 1 24.3017579435 39.0524496188 1.99946388151
5391 1 27.3244050772 36.5730186831 0.911621700188
5462 1 27.2477704954 39.1104776915 2.18376401826
5951 1 30.0958414285 36.5146654434 0.956218633861
5958 1 28.6717230705 37.1765792041 2.86415041888
6022 1 30.1194070217 39.0570932719 2.23873497986
6026 1 28.7488484813 38.4420483134 0.304168815477
6511 1 32.8659759336 36.4785723115 0.938419742354
6518 1 31.5107043464 37.1422781432 2.86741013744
6582 1 32.9173275238 39.043914899 2.23212221074
6586 1 31.4998554997 38.4137562367 0.326661169985
7078 1 34.2910169041 37.1160231271 2.85353764719
7146 1 34.2998614243 38.3929202453 0.325318378836
7071 1 35.6713649255 36.4613943551 0.940096870884
7142 1 35.6880725523 39.0428654535 2.21933682274
7638 1 37.05394849 37.110414773 2.85754759133
7706 1 37.0298498312 38.4181890464 0.264821560103
7631 1 38.4194699778 36.5920454663 0.900097016062
7702 1 38.4565694623 39.0061674161 2.14214944372
8191 1 41.3923987596 36.6504262984 0.913308707599
8198 1 39.8488843249 37.1827886759 2.81822968513
8266 1 39.9321394772 38.4500140856 0.196476934064
8262 2 41.2260638456 39.1448528499 2.04462409132
8761 1 43.8807787719 35.4269807263 3.29064372815
8751 1 44.0145001393 36.2696104181 0.993092254704
8758 1 42.5931097173 37.2937989885 2.94332950146
8822 1 44.9218067028 38.005732135 2.20786398047
8826 1 43.013059148 38.4642493085 0.567946081457
989 1 3.28691903095 39.5437791672 2.36642436036
423 1 1.47776098883 41.5762623932 2.86731072518
986 1 3.10204685593 42.1353690452 0.90899491237
426 2 0.89552882005 41.8587384928 0.650519097099
422 1 1.95928063298 39.9458192383 0.317331269778
982 1 4.45219117699 40.1442486302 0.288793265385
983 1 4.48233380259 41.5172862327 2.83065201834
1542 1 7.3474086111 40.2119432903 0.325341809352
1543 1 7.35406791826 41.5063535357 2.85360273029
1546 1 5.90144523974 42.098256871 0.940687036957
1549 1 5.96629547936 39.619107756 2.259012463
2102 1 10.0971048986 40.1912479416 0.287203779425
2103 1 10.1116054208 41.4703587567 2.88487701912
2106 1 8.74973131593 42.1090811788 0.970545499678
2109 1 8.72041743687 39.563693533 2.26548469159
2669 1 11.4463381109 39.5305434397 2.22258937325
2666 1 11.4765240595 42.0652748887 0.964475551565
2662 1 12.8320110759 40.1343095835 0.274648147064
2663 1 12.8430358755 41.4030439881 2.90495555721
3226 1 14.2075622416 42.0038165422 0.972721984804
3229 1 14.2180937548 39.464583867 2.23244281572
3222 1 15.6067355983 40.114403985 0.349345658508
3223 1 15.6026434845 41.3523386354 2.91910795925