ITEM: TIMESTEP
26000
ITEM: NUMBER OF ATOMS
8960
ITEM: BOX BOUNDS pp pp pp
0.0 45.68
0.0 51.0717926061
0.0 44.6878185303
ITEM: ATOMS id type x y z
569 1 2.87956114671 0.858887722881 2.22274617039
2 1 1.58681810856 1.58755466154 0.159381144761
566 1 2.90823065553 3.48510036073 0.902464363242
3 1 1.34973134372 2.81614938038 2.74478778695
8465 2 0.593049300835 0.296382959797 2.18892628378
8401 1 0.113938001278 3.37295841974 0.751960293611
562 1 4.35795945108 1.62045346179 0.322225083607
563 1 4.27204705818 2.89628329773 2.85003956224
1122 1 7.18277812556 1.71126618448 0.374212128954
1123 1 7.12815466933 3.0397548382 2.92394903067
1126 1 5.7276121391 3.59300123268 0.979701725095
1129 1 5.74763541849 1.05864443216 2.24883045902
1682 1 10.0187508381 1.73911095033 0.356855833365
1683 1 10.0174379817 3.08017104082 2.96349398759
1686 1 8.57181519149 3.61750540257 1.01377885262
1689 1 8.71768120054 1.25129201147 2.36148989905
2249 1 11.3304727293 1.07661056994 2.34824583402
2246 1 11.3501361935 3.66408470081 0.999509119567
2242 2 12.6410303584 1.72906298149 0.423853205373
2243 1 12.705064343 3.02860628143 2.91308328332
2809 1 13.9635522961 1.07118007746 2.33229034982
2806 1 14.2425084111 3.50057807417 0.976655887627
2803 2 15.2307056254 3.02080375035 3.18511501243
3369 1 16.1716058977 1.5891297873 1.640044952
3851 1 18.2830607155 0.722373111259 0.853163988499
3366 2 16.9121653773 3.86354474745 0.813714949477
3370 2 17.523829791 0.666566511589 3.14687861625
3929 1 19.6671756695 1.20225483834 2.82641753868
3363 2 19.4131646777 3.6358139567 2.77415923649
3362 1 19.4387630793 2.95393446054 0.675215353309
4489 2 21.494599829 0.0291933812408 2.20172980883
4488 1 21.6539008547 2.4195945907 2.66333633348
3923 2 23.4624027451 2.50203612094 1.3029595905
4482 1 24.005773642 0.667883976413 2.62143975128
5047 1 25.7269590068 2.6795110362 1.59219488662
5046 1 25.817319391 0.0965644224942 0.445848668043
4486 1 23.2574252462 0.120586644942 0.379960268266
4483 1 24.2339833297 3.36821525925 3.43255412542
5042 1 27.0815122383 0.820824846955 2.30843213853
5043 1 27.0558083201 3.34131959312 3.50170473988
5602 1 29.9450100982 0.856586271674 2.24014142422
5603 2 29.9162435116 3.32051009123 3.62738027105
5607 1 28.5130586341 2.71246248403 1.60682997345
5606 1 28.5336559808 0.186239712449 0.333127074924
6162 1 32.7454880046 0.85553495666 2.22175021737
6163 1 32.7315540037 3.37465534772 3.48340006597
6167 1 31.3095124572 2.75744421723 1.60687196532
6166 1 31.3509127551 0.195463226155 0.327178607749
6727 1 34.147100184 2.74216995204 1.57720974601
6726 1 34.1586979108 0.194886105537 0.313875167893
6722 1 35.5860936577 0.849557069051 2.19583281923
6723 1 35.5955473959 3.35343498447 3.443349
7287 1 37.0261175837 2.73928502338 1.53003967934
7286 1 36.9821990226 0.182034029851 0.321929227643
7282 1 38.4087463731 0.79873096656 2.1998832425
7283 1 38.384736067 3.28838737364 3.45044357785
7842 1 41.3512836122 0.96202940063 2.25232306886
7843 1 41.0849944 3.17371914275 3.55513885522
7847 2 39.7401469212 2.59008155153 1.44117583679
7846 1 39.9124592765 0.177917875554 0.344652637131
7841 1 41.6733240946 3.63859388133 1.37203586544
8407 2 43.3645317164 2.16331186131 0.955340563643
8402 1 44.1229319227 0.655824754386 2.63876690309
8406 1 42.6971333966 0.0492049700338 0.370819838028
8 1 45.030793549 0.858558787781 0.212423311259
8403 1 43.9292840782 3.17014442645 3.07589940642
6 1 1.73727842937 5.47827080147 1.46103738386
639 1 2.85147549134 7.51177854237 2.2251116389
567 1 2.86541208167 4.78845339861 3.43765777313
8404 1 0.352816878715 7.4834445924 2.15129357404
561 1 4.30190874068 5.51762692071 1.58843204074
1121 1 7.13428441908 5.52758188411 1.63611187583
1199 1 5.70656707489 7.43884766885 2.26803029865
1127 1 5.67310992801 4.88495169844 3.52775806645
1681 1 9.95400547061 5.55146575936 1.64970656618
1759 1 8.53354967691 7.46385217309 2.27986102955
1687 1 8.54787149607 4.93627284192 3.56343981939
2319 1 11.3662926541 7.45453283019 2.27615310806
2247 1 11.3859435225 4.96514850804 3.56344274746
2241 1 12.7656066861 5.49994651414 1.61941289208
2879 1 14.1324405838 7.41236019878 2.24393397692
2807 1 14.1202276887 4.93505523609 3.55584013337
2801 1 15.500984351 5.46081630307 1.66346198567
3361 1 18.5139201859 5.54747517182 1.34992492623
3439 1 16.7615066807 7.37236386407 2.18658509654
3367 1 17.0949048121 4.72572964016 3.44210443723
3921 1 21.1119507173 4.88382688138 1.66856926745
4559 2 20.1069788196 6.94034541778 2.79498732141
3999 1 20.2053241719 7.1378976395 0.562942270952
4556 1 22.6523194995 6.52105590093 0.395511729518
4481 1 24.0728409405 4.59756292343 0.718594151649
4552 1 24.1890472473 7.22154864932 2.09083358055
5048 1 25.6774683854 5.28270001096 2.74599681049
5116 1 25.7497055181 6.37082694665 0.28988260514
3995 2 23.0746128876 5.4909559671 2.88044443465
5119 2 25.67089246 7.80062785737 3.69295404373
5041 1 27.1177529764 4.5640793648 0.941221968329
5112 1 27.1806403334 7.16745578475 2.17426568233
5601 2 29.9214288977 4.67539261146 0.832639153108
5608 1 28.4946712573 5.23773146233 2.86312837434
5672 1 29.8969619237 7.16308421239 2.22681170703
5676 1 28.5217339348 6.52393668701 0.295367204055
6161 1 32.7184775168 4.63365525936 0.952951491079
6168 1 31.2906807523 5.24912751725 2.84355647982
6232 1 32.7313753999 7.13898921453 2.21967744005
6236 1 31.3432401263 6.5464632322 0.313744674735
6796 1 34.1489246547 6.53045615317 0.295746896637
6728 1 34.1535173334 5.25057629683 2.83391380082
6721 1 35.5383487554 4.63266771205 0.916809664522
6792 1 35.5210042874 7.19003093317 2.22696285728
7288 1 36.9800029082 5.24711742119 2.81647050639
7356 1 36.8099339844 6.66746212013 0.227648047492
7281 2 38.0698105371 4.94170538237 0.790715629998
7352 1 38.3580812652 7.18110668406 2.18067258406
7848 1 39.8469340202 5.06462514463 2.52685607172
7912 1 40.9745137494 7.22254624683 2.17432036434
7916 1 39.5741714933 6.57709957075 0.23685751439
8476 1 41.7584664328 5.77764868473 0.582227611305
1 1 45.5588780107 4.95680134331 2.68669481039
8408 1 42.6746950805 5.26444846581 3.0671721678
8472 1 43.8179487222 4.5320958467 0.960582653053
76 2 44.0048710115 6.65832149719 1.40603662014
72 1 1.50931841541 8.15698928394 0.0850064303393
73 1 1.4810740238 9.63448200148 2.73050465439
636 2 3.11733684518 9.93480743147 1.10519745888
637 1 2.89046915719 11.3685379454 3.56920698073
632 1 4.34512709224 8.07319196622 0.341433525304
633 1 4.32949408575 9.40177211384 2.93010393247
1192 1 7.13555164163 8.08316838138 0.36129675456
1193 1 7.11289102336 9.38366193544 2.91060723168
1196 1 5.74180871061 9.9969895471 0.983392094362
1197 1 5.72732614413 11.3216741605 3.59468112996
1752 1 9.94086297349 8.09870521618 0.367226338174
1753 1 9.951608591 9.38303172162 2.91142435372
1756 1 8.53364665868 10.0226464584 1.00509368089
1757 1 8.53965903878 11.3024775031 3.55389081299
2317 1 11.3690956596 11.3031062393 3.54490740898
2316 1 11.3393656816 10.0280275276 0.99245129871
2312 1 12.7202119778 8.09698788212 0.341440090079
2313 1 12.767862798 9.37897987302 2.8949021929
2876 1 14.1091496961 10.0223620733 0.934296091756
2877 1 14.1908830881 11.2878016155 3.52566577324
3432 2 18.1306296091 7.95149242657 0.296591412688
2872 1 15.4901537492 8.11767746845 0.274714524847
2873 1 15.4790282234 9.3201599231 2.7777625091
3433 1 18.557619897 8.96167440646 2.5100261034
3436 1 16.9516609694 9.9606617252 0.94189327325
3437 1 17.0345433365 11.0549522926 3.18855781583
4557 1 21.7173779229 8.84275636427 2.05890010052
3996 1 19.8630075518 9.99657148715 0.709037789804
3997 1 19.9648267815 10.8155155385 3.05949562002
5118 2 23.5584682254 10.6376552342 1.71533830539
4554 1 24.1445704758 9.5781761919 3.53183059089
5117 1 25.6966144862 9.21684271683 1.56616665362
4551 1 25.5979950635 11.7465107802 2.67746888545
5111 1 27.1895746801 11.0212579492 0.891704957493
5671 1 30.046429329 10.9556334973 0.926615081635
5673 1 29.9423519455 9.73037759646 3.46800777143
5677 1 28.5157638068 9.12355177144 1.59776395346
5678 1 28.5692018939 11.6358828246 2.76770638604
5113 1 26.9733296314 9.84501536503 3.5530683812
6231 1 32.7505298326 10.9987172054 0.934968185783
6233 1 32.7484170783 9.71065721575 3.4922926356
6237 1 31.3622096034 9.0509612737 1.58201362964
6238 1 31.4002464337 11.64705877 2.84388338769
6798 1 34.1408707553 11.5922487756 2.85920131401
6797 1 34.1276032446 9.08278634142 1.57605493153
6791 1 35.5311686227 10.9953049692 0.933660822088
6793 1 35.5695991892 9.70475453565 3.47185755781
7357 1 36.9350180732 9.0785256282 1.53796782558
7358 1 37.015862019 11.588809836 2.80901362505
7351 1 38.3284643221 10.9764707694 0.820511706066
7353 1 38.4193920811 9.74239952425 3.40871648451
7911 1 41.073528656 11.0455847412 0.597907404777
7917 1 39.7188679726 9.12685622658 1.45936436939
7913 1 41.2666238366 9.85211923306 3.39615583956
7918 1 39.7559628327 11.6504107758 2.71858254121
8477 2 42.0726099104 9.1531544269 1.25826443433
8473 2 45.4197053112 9.48714918492 1.07961716774
7914 2 43.4788469596 10.710260835 3.24915189901
71 2 1.04043477577 12.1555815964 2.34678592935
706 1 2.84703416188 13.7642062062 2.33765055166
141 1 0.263890854702 14.3292047585 1.6523158966
769 1 2.34742480278 15.3080067225 0.540566893169
631 1 4.48179873049 11.9562380063 1.67033800141
1191 1 7.12340470988 11.9486214794 1.65142667859
1262 1 7.13608706476 14.5228223704 0.360155018829
1269 1 5.77100902071 13.9093952603 2.35295010341
702 1 4.56810326528 14.6142814132 0.374079259974
1751 1 9.94050767102 11.9488845174 1.63793148048
1822 1 9.93725592776 14.511956421 0.356710824432
1829 1 8.54106946719 13.8725435403 2.28082692348
2389 1 11.3616393614 13.8627243004 2.27358761579
2311 1 12.7533895092 11.9485840992 1.62124062546
2382 1 12.7652290969 14.4910811578 0.354537499801
2949 1 14.2035483922 13.8365020487 2.28327901171
3431 1 18.423922804 11.8422859405 1.48582566313
2871 1 15.5170056434 11.9118125435 1.59607298707
2942 1 15.5716046731 14.4665055673 0.342656829187
3502 1 18.4295051049 14.4516921087 0.521829934117
3509 1 17.0350626253 13.6946568344 2.34401048275
2943 1 15.624908907 15.7051570312 2.9172909857
3991 1 21.4325725927 11.8775842674 1.33981570803
4069 1 19.7262657774 13.4831860879 2.49615220161
4622 1 21.9825686538 14.3074313703 3.02880721754
4062 1 21.0517143916 14.2464278033 0.428294085694
4558 2 21.6818439268 12.2032192887 3.61375244773
5186 2 25.8114393123 12.8196150599 0.211230002345
4626 2 23.1215297703 13.7530364773 0.897660922177
5187 1 25.2368751543 15.1465734453 1.38058893568
5182 1 27.2404788288 13.5716723077 2.04783062586
5742 1 30.0319970561 13.5363588492 2.16889886021
5747 2 28.7627911982 15.5567752754 1.6075162945
5746 2 28.851585927 12.7628937086 0.197537425419
6302 1 32.8489302402 13.5645227843 2.20135211006
6306 1 31.4518438791 12.938458672 0.292863045133
6307 1 31.4709714384 15.4519547601 1.56187210642
6866 1 34.1613619637 12.9044696544 0.304122580612
6867 1 34.3197117572 15.4359562237 1.58973404281
6862 2 35.5860728821 13.3242128157 2.27912844861
7426 1 36.9558364112 12.8761903516 0.212893121309
7427 1 36.8563082627 15.4457072802 1.55376123785
7422 1 38.2875140276 13.5409371713 2.11594419644
7982 2 40.8664760714 13.4561147044 1.82599019905
7986 1 39.5821106277 12.9197671032 0.0413208787574
7987 1 39.5916516726 15.455428326 1.3314722079
77 2 43.9349548093 13.3589690367 1.57374044674
8547 1 42.4309622545 15.363424286 1.6466625882
148 1 42.425893615 12.9571334894 0.00914463918306
143 1 1.57866498919 15.9190632559 2.93823951484
8543 1 0.250748345496 16.9286598781 0.506591016977
703 1 2.55498372099 17.4390788822 1.35028153161
779 1 0.723988291006 18.2511839558 2.98905634075
218 2 0.951830672408 19.2669602012 1.04808657072
710 1 3.15826370566 17.7994712157 3.629521716
1263 1 7.16664067594 15.8165635835 2.93273863179
709 1 4.20482320247 15.7972588113 2.74890352689
701 1 4.54683871288 18.4689437174 1.65230891709
1266 1 5.83323581993 16.5013379006 1.02466993464
1261 1 7.20323280582 18.4050668382 1.66621362607
1267 1 5.77263657745 17.7223285332 3.57683020551
1823 1 9.96181837312 15.7884536372 2.91237987456
1821 1 9.97287627275 18.3416489397 1.6330508666
1826 1 8.55228973694 16.4427963371 0.994817936147
1827 1 8.57712168397 17.7320134947 3.5701605917
2386 1 11.3644693021 16.4128594798 0.991690686331
2387 1 11.4005849598 17.6845278623 3.5384040038
2383 1 12.7982926731 15.7588156444 2.90416469913
2381 1 12.7981596358 18.3057919589 1.61674760081
2946 1 14.2001186535 16.3890279354 0.983055889618
2947 1 14.243886832 17.6481826103 3.53879958782
3503 2 18.1626689734 15.7846607827 2.78190272876
2941 1 15.6082284632 18.2957754558 1.58739724739
3501 1 18.5201373459 18.1415717203 1.45235475517
3506 1 16.9292914173 16.3606436404 0.903540431355
3507 1 17.0079179166 17.6587161546 3.5367037306
4063 1 22.5289891098 16.068667722 1.38132640031
4061 1 21.1671738738 18.2088338338 1.57945264618
4066 1 20.2086546093 15.8473381622 2.03815872517
4627 1 21.8388257796 16.5316898734 3.58360204906
4067 1 19.6172828703 17.6766969062 3.51037992978
4696 2 23.2948941738 19.2811621108 0.565969252289
4628 1 23.2881092328 18.1244423167 2.84050845762
4621 1 24.4728940885 17.3623802519 0.835083184356
5188 1 25.878772313 17.8094601536 2.80371060816
5256 1 25.8798166887 19.2482017956 0.211193086894
4623 1 24.2902666809 15.9607359814 3.52061289847
5183 1 27.1639258181 15.9577292881 3.36960478865
5181 1 27.1597177998 17.2375987211 0.89693029875
5741 1 30.0727564808 17.3636412233 0.911101443283
5743 1 30.0653346348 16.0799738151 3.47808269047
5748 1 28.6183216771 17.9330963556 2.83339237979
5816 1 28.6087444846 19.1962864991 0.279388207296
6301 1 32.9181168254 17.3291864574 0.913686762255
6303 1 32.8811678962 16.0759967666 3.4607040721
6308 1 31.4800698501 17.9749958413 2.83113534184
6376 1 31.4750754237 19.2451528168 0.281921108671
6936 1 34.2123135477 19.307900866 0.262092212023
6868 1 34.2297786664 18.000880578 2.87344329089
6861 2 35.5660750512 17.5151789496 0.980837168561
7428 1 36.9775263482 18.0150734972 2.84397235924
7496 1 36.9275843604 19.3383350982 0.248785682866
6863 2 35.5960684057 16.1225454708 3.69902739835
7421 1 38.1844222212 17.3959157724 0.866487471647
7423 1 38.3036001898 16.0977518518 3.4144322788
7981 1 41.145552244 17.3939142463 0.942657345154
7988 1 39.7082988583 18.2670967336 2.82447876433
8056 1 39.7463540141 19.2513286797 0.292820393276
7983 2 40.6109732692 16.328602728 3.08977077439
147 1 44.8385927786 16.4038335208 2.73027397822
8610 1 43.6248756599 17.3395456411 0.882704962694
8616 1 42.8176931659 19.4325835556 0.136309835886
8544 1 42.6357172174 17.6892804214 3.18999705295
8548 1 44.2747705578 19.3215915705 2.27503171116
220 1 1.4227399089 22.0459894031 3.25534191628
216 1 3.00282477129 22.7141210824 1.0456475069
228 1 2.87239675889 20.242174072 2.17210094327
776 1 1.11167225263 21.3990719105 0.276593641402
772 1 4.40207038214 20.8653396394 0.403956180244
773 1 4.3691858557 22.2860267158 2.95607312803
1332 1 7.21730910723 20.9132009654 0.395204423974
1333 1 7.21089146205 22.2413086529 2.9844587298
1336 1 5.80733916009 22.8212930824 1.06980356369
1339 1 5.81285150077 20.3765847251 2.31585673712
1892 1 9.9685975989 20.8823421429 0.364733470341
1893 1 10.0329177061 22.1669700022 2.92312068277
1896 1 8.58932470007 22.822523378 1.0411895447
1899 1 8.602270733 20.2899126421 2.30932227189
2459 1 11.3882792388 20.2151455397 2.25172063366
2456 1 11.3753778761 22.7695032314 0.961677804685
2452 1 12.7863972462 20.8512900472 0.32068121545
2453 2 12.8054333838 22.0595748078 2.76442013103
3016 1 14.1983715796 22.7565825165 0.941739314231
3019 1 14.2230125543 20.1894850662 2.22439737452
3012 1 15.6016103506 20.8584731028 0.288487466965
3013 1 15.5962340699 22.1064494569 2.83152685727
3573 1 18.3859241548 22.1374502681 2.7672234254
3576 1 17.0305330694 22.7660553187 0.880358477388
3579 1 17.0257698541 20.1781214465 2.15577093209
3572 1 18.4299438963 20.8678782001 0.242168465445
4697 1 22.3972494706 20.6384895452 2.21439630735
4139 1 19.8098497716 20.2076742072 2.1203491405
4136 1 20.8389420093 22.3114122557 2.81057956967
4691 1 22.4501840724 22.8412397794 1.1736276991
4132 1 21.3201582799 20.6473254218 0.134958139229
4766 1 20.0042238765 22.8003782339 0.483368614028
4692 1 24.7837548654 19.8823225651 2.20992646499
5257 2 26.0529473976 21.7700153153 1.52541931586
4693 1 24.2246043283 22.1510395643 3.11333541038
4755 1 24.2563217802 21.324181839 0.0938614908182
5252 1 27.2435436332 19.8139521501 2.23617771329
5253 1 27.2595769666 22.4302636274 3.52479619588
5812 1 30.0346603667 19.8571603579 2.20406327159
5813 1 30.0085053645 22.4758383893 3.49133177079
5817 1 28.6753702515 21.7479749512 1.57936908499
6372 1 32.8470591846 19.9148308903 2.20279833948
6373 1 32.8277666171 22.4834510611 3.47138997013
6377 1 31.4280008743 21.8154721659 1.56874210868
6937 1 34.2278541361 21.8512476377 1.54784316201
6932 1 35.5950392805 19.9298446178 2.1985053202
6933 1 35.6202510513 22.5037276115 3.469628872
7497 1 36.9779436885 21.8759125907 1.53095052533
8052 1 41.3575202502 19.9627708091 1.96201578711
7492 1 38.3105480887 19.9735364871 2.14125536436
7493 1 38.3629317377 22.4789352487 3.45949852177
8053 1 41.1433809981 22.2764645154 3.44254500378
8057 1 39.802728074 21.8357227886 1.53470606331
8617 1 42.7392203514 21.84773816 1.40914135862
8604 1 44.9015616011 21.8939248854 2.51935409834
280 1 0.86356385845 23.6179383187 1.37076603609
211 1 0.98452498417 26.0697663142 2.27402626667
849 1 3.13478222758 26.9326875541 2.51843988013
777 1 2.67704200244 24.1458953898 3.0844263853
219 1 2.87195069165 25.2144731685 0.179430254592
288 1 0.137463185953 25.5464396247 0.0485840859344
282 2 1.89702609531 27.2003082753 0.563358396381
771 1 4.53558840157 24.7579131722 1.77486999247
1331 1 7.17774513815 24.751610089 1.73924617388
1409 1 5.80213956421 26.6997488351 2.37322317386
842 1 4.40781365898 27.2573915026 0.438122575797
1402 1 7.14620331038 27.2630136417 0.393513624927
1891 1 10.0190155863 24.6866967139 1.66287695074
1969 1 8.64167838628 26.6478572787 2.25104502131
1897 1 8.64403005944 24.0881519553 3.57561361859
1962 1 10.0079619216 27.2310541063 0.351678266895
2529 1 11.4141717242 26.5819422167 2.27344279733
2457 1 11.4353152268 24.0221842868 3.56130069637
2451 1 12.7796176864 24.6370877659 1.63341174254
3089 1 14.1589360779 26.5370146798 2.26680942375
3017 1 14.1704274491 23.9919316123 3.52921574807
2522 1 12.7840309848 27.2033136958 0.345674666712
3011 1 15.5854749808 24.6343200201 1.63167719584
3571 2 18.3468340087 24.6558553154 1.76429695647
3649 1 16.9718395587 26.5861797564 2.25535625488
3577 1 16.9584201757 23.9968667781 3.55092867221
3082 1 15.5250393562 27.1607159376 0.356758108117
3642 1 18.2840352409 27.2232038518 0.30323638322
4131 1 20.9367261501 24.692742727 1.74914849854
4209 1 19.7421350753 26.6729422254 2.29610932291
4202 1 22.568502305 26.579062984 1.70038171609
4208 2 20.7866348155 26.9798961412 0.328805389713
5329 2 24.5707128811 25.7030090612 1.92332665991
5258 1 25.8006427081 24.020926942 2.61944253151
4698 1 22.9778801083 24.166205064 3.2884225454
5326 1 25.8011717589 25.2823338775 0.0806570910242
5251 1 27.4469375224 23.687205899 0.890651113415
5811 1 30.0546457114 23.726441784 0.907190816237
5322 1 27.1229500876 26.2764841242 2.10650680888
5818 1 28.6388596851 24.3910269566 2.79391045487
5882 1 30.027110561 26.3208805292 2.17353079408
5886 1 28.6529555008 25.6703897936 0.28012144198
6371 1 32.8307864837 23.7563673097 0.901969005267
6378 1 31.4305434899 24.3975252296 2.81773590275
6442 1 32.835596194 26.3229144217 2.16558901183
6446 1 31.4419021835 25.6735184522 0.259848278212
6938 1 34.2321699606 24.4106381508 2.81844825005
7006 1 34.2396323051 25.6834283364 0.24340523224
6931 1 35.6345784503 23.7873511431 0.899249464759
7002 1 35.6577862724 26.3030614867 2.15448954163
7498 1 37.0406497812 24.4106617947 2.82162827547
7566 1 37.0459177528 25.6669556047 0.214502197243
8051 1 41.2542982104 23.723440816 0.968013610783
7491 1 38.4331628333 23.7596060521 0.910738286772
7562 2 38.4506554971 26.3211856284 2.04775828573
8058 1 39.8318391244 24.2938335168 2.84777717189
8122 1 41.2099318349 26.1371381046 2.26937156286
8126 1 39.8258934964 25.6278342116 0.251970636637
8613 1 45.6610333022 24.3273261899 3.5534738191
8611 2 44.2512154347 23.814543247 1.38147623825
8618 1 42.8311847625 23.894570682 3.1791246943
8682 1 44.0133453648 26.0977415925 2.18108502947
8686 2 42.2573822681 25.8561700841 0.281313909767
286 2 1.09797243615 30.1607512963 1.50330104343
846 1 3.05410963299 29.2327517943 1.11109441903
283 1 1.10276633338 28.6355679337 3.54018545862
847 1 2.89245240295 30.6637762624 3.52123913973
843 2 4.6089977751 28.8243885294 2.91351508291
1406 1 5.81369520624 29.2251737398 0.96723787212
1401 1 7.34864761829 31.1207914501 1.66243040482
1407 1 5.95355926284 30.5475165074 3.59507881426
841 1 4.53251257954 31.1402867984 1.71841133519
1403 1 7.24444389986 28.577167434 2.93784683588
1961 2 10.036864671 30.8784687864 1.56835603449
1963 1 10.0598387425 28.5399722442 2.88949720239
1966 1 8.57671843391 29.126444647 0.986980347302
1967 1 8.70085590997 30.4533409567 3.55946320505
2527 1 11.4367416927 30.432504613 3.54750038956
2526 1 11.4418166026 29.1217838348 0.973661564162
2521 1 12.7577582081 31.0962861325 1.63854233256
2523 1 12.8013192246 28.500451147 2.91389445431
3086 1 14.1472160357 29.1357299036 0.986064490286
3087 1 14.1833094691 30.4196263525 3.54260623416
3081 1 15.5373478301 31.0483325647 1.61511092461
3083 1 15.5279296929 28.4474312505 2.89613703401
3643 1 18.3915890703 28.5287578946 2.85575158999
3646 1 16.8785906376 29.0689051752 0.993160231869
3647 1 16.8896154189 30.3320195733 3.51089754694
3641 1 18.1762464775 30.9771410314 1.56850195319
4203 1 21.2962881498 28.4425153876 2.78251244488
4206 1 19.6836396123 29.1433775834 0.834660780308
4836 2 21.6578853484 30.1834119525 1.06784533711
4207 1 19.9024308476 30.3890693929 3.24967659356
4768 1 22.9287551254 30.7121238789 2.93062985039
4761 1 23.6511858923 29.1191581025 1.08204120399
5327 2 26.1086324507 28.5017389272 1.36397470014
4763 2 23.547589837 28.3333150257 3.28582991683
5328 1 25.3665196859 30.6197997967 1.64892538032
5323 1 27.2410733688 29.0742380546 3.38028290723
5321 1 27.4730255993 30.263135999 0.784446861659
5881 1 30.079475714 30.1793775952 0.858610243699
5883 1 30.0291500051 28.9173769521 3.44245924894
5887 1 28.6712870537 28.2453037402 1.54094101205
5888 1 28.7395226221 30.8768293912 2.76999310899
6441 1 32.8720761688 30.1608873134 0.862022295086
6443 1 32.854021999 28.8869429182 3.43220758315
6447 1 31.4496412571 28.2494833006 1.52749666623
6448 1 31.4723579352 30.8139874181 2.77862934461
7007 1 34.2600861139 28.2297222132 1.50857511773
7008 1 34.2910955525 30.7858231957 2.76713606099
7001 1 35.6829946998 30.1424383267 0.848175902969
7003 1 35.6685885651 28.8324383008 3.41843455554
7567 1 37.0450290157 28.2112215798 1.48701072423
7568 1 37.0757675478 30.7507982557 2.76364251489
7561 1 38.4480935963 30.1116640744 0.819507378984
7563 1 38.4016524456 28.7688400688 3.43758955381
8121 1 41.2912263176 30.0994847635 0.874096273851
8123 1 41.1820763429 28.713354563 3.47050202
8127 1 39.8218403345 28.2235677142 1.54323035046
8128 1 39.7599681871 30.6324271907 2.77855810386
289 1 45.4002938472 28.008012289 1.45852177292
8681 1 44.0377264935 30.0317637604 1.14285443733
8687 1 42.5316734774 28.0817763164 1.56529538274
8688 1 42.5455949445 30.6233435148 2.87577433839
8683 1 43.939578877 28.6387000749 3.40170722982
281 1 1.03614746757 32.4178804431 2.36032203883
353 1 1.69206556976 34.751057444 2.92927935948
919 1 3.23187432422 33.0828080947 2.34069650076
918 1 1.44861858438 33.8829223108 0.375445726702
344 1 2.78100180792 31.8543155405 0.101938749291
912 1 4.42599677044 33.6688160122 0.388063771746
913 1 4.60064084431 34.9655008465 2.88390043698
1472 1 7.33447417155 33.6181338436 0.396017345818
1473 1 7.41358305055 34.8832955573 2.91280661875
1479 1 5.96454485654 33.0179259016 2.29417181536
2032 2 10.0302101477 33.6873295643 0.158162671712
2033 2 10.1098679435 35.1086626769 2.96803347947
2039 1 8.82516526427 32.9962869438 2.27716953306
2599 1 11.3203764177 32.9795529756 2.26934137966
2592 1 12.7439227843 33.622447113 0.379665064252
2593 1 12.7565280173 34.8751424954 2.83837535342
3159 1 14.1879241785 32.9980202205 2.27773286794
3152 1 15.5767462644 33.6412960897 0.334233735604
3153 1 15.6538528251 34.9138226491 2.8377421697
3712 1 18.4690566436 33.735938192 0.391668825763
3719 1 16.9123809472 32.9504764141 2.24193497747
3713 1 18.3166734038 34.7611210403 2.88088095684
4279 2 19.4177219239 32.7180948106 2.39117551076
4839 2 22.4801102604 32.9564990295 2.32552775897
4272 1 21.0323404989 32.7689534061 0.419052096814
4837 1 20.5867493834 34.565226398 2.01752420008
4273 1 22.247285927 34.9310553373 3.6024598658
4824 1 23.3158630336 31.9176385087 0.182088577139
4838 1 22.988430987 34.7872489185 1.14200208509
4832 1 24.6619759787 32.8731730866 2.05890923594
5396 1 25.8960705715 32.1997410794 0.0478739775774
5397 1 25.9177661251 34.7544043033 1.44806674755
5392 1 27.2020375723 32.6847742646 2.13309784354
5952 1 30.105681876 32.7490510947 2.11118067767
5956 1 28.7048659395 32.167360119 0.187881232482
5957 1 28.6667014366 34.6179059209 1.45813033008
5953 2 30.1139718468 35.1700503938 3.30297723407
5393 1 27.3424913601 35.3549200144 3.38012018891
6512 1 32.9015609994 32.7130200109 2.11583333758
6516 1 31.4858436476 32.0929037422 0.204595524216
6517 1 31.5176899723 34.6344705897 1.44871855281
6513 1 32.8973823684 35.2750585597 3.3726396655
7076 1 34.2975457314 32.0741153459 0.209279145109
7077 1 34.3126167112 34.6348029523 1.48185281426
7072 1 35.7147594777 32.7139539201 2.12056702132
7636 1 37.1104162701 32.0743425896 0.206221525208
7637 1 37.1689871348 34.64980142 1.50035932642
7073 1 35.7449190423 35.2904762805 3.37953999785
7632 1 38.4662643548 32.6598391332 2.12629758149
8192 2 41.0489922376 32.3790986506 2.1871107897
8197 1 39.9377944003 34.4562718391 1.46182277654
8196 1 39.9387706618 32.0800942791 0.188126931317
8193 2 41.2207254681 35.1920666502 3.58865772252
8753 1 45.1945308314 34.291106647 1.70072924113
8752 2 44.1945841292 32.1919782496 2.34853691497
8757 2 43.2287810923 34.8117440575 0.666056588571
8756 1 42.7097431912 32.1956498869 0.352767769649
358 1 45.5820147774 31.8532568857 0.359675893728
916 1 3.06988708287 35.6138117165 1.0538410236
351 1 0.462034334188 38.3863087019 2.13017404407
917 1 3.06214646538 36.7725852733 3.54859486528
414 2 0.745885876048 36.2597805935 1.08358278583
989 1 3.0724964526 39.1180816415 2.44628502695
911 1 4.59343131145 37.3713126063 1.74866631813
1471 1 7.31831519351 37.4412830671 1.65761339981
1476 1 5.93552427455 35.504673992 0.988733495119
1477 1 6.03723642074 36.7937691138 3.58217814389
2031 1 10.0822070121 37.5257942284 1.61257282089
2036 1 8.70398414363 35.5544258607 0.993504482042
2037 1 8.74208570574 36.8784215819 3.56083396171
2596 1 11.3959550632 35.5597459074 0.96188977842
2597 1 11.5329511784 36.9205223419 3.49748436414
2591 1 12.7653558006 37.4987669055 1.51960025133
3156 1 14.1809694102 35.5490673521 0.958177911881
3157 1 14.1919481147 36.7755834215 3.32281548485
3716 1 16.9843166141 35.5755648047 0.903472901175
3151 1 15.5695028663 37.4716190906 1.53534863827
3717 1 17.1849764924 36.8619843511 3.48179079511
3789 2 17.6959925746 38.2404315998 1.54799965976
3711 1 19.1066212095 36.4130686887 1.32979028317
4276 1 21.5793353222 36.7594034135 1.36456730978
4277 1 20.3494059435 36.5527244802 3.57011802918
4349 1 19.1528488296 38.8326783821 3.07310547493
4271 1 21.4876748398 38.9791879482 2.63012917553
4348 1 19.9490646013 38.2516909015 0.229255204095
4906 1 22.8236227677 38.6231761958 0.299211806182
4833 1 24.5845750547 35.3661940976 3.39021819853
4902 1 23.0962656191 37.2211962068 2.95802042673
4831 1 24.4496350915 36.6999840686 0.898462293562
5398 1 25.9537492237 37.2658615747 2.74114929357
5466 1 26.0133092816 38.5584434396 0.364713388807
4907 1 24.4486538439 39.1273773933 2.18733640482
5391 1 27.3581714241 36.572879515 0.847354996258
5462 1 27.3754211903 39.1599570958 2.16691077194
5951 1 30.096367046 36.5459068966 0.845295746845
5958 1 28.7608414766 37.2076126766 2.76007614946
6022 1 30.1246406368 39.1038700614 2.13191517818
6026 1 28.700005926 38.4840625057 0.201779589601
6511 1 32.8914560486 36.5528621705 0.850517504727
6518 1 31.4910459557 37.1785039278 2.75746552439
6582 1 32.8882790964 39.0924492336 2.1291395314
6586 1 31.4844592546 38.4630330277 0.206799266806
7146 1 34.2913651956 38.4672973475 0.213622487765
7078 1 34.3096512129 37.1891785748 2.75173517217
7071 1 35.7234248602 36.5530989268 0.855207750824
7142 1 35.6979776256 39.1303642081 2.13659632129
7638 1 37.1328640075 37.2401197814 2.74042602405
7706 1 37.0688560321 38.4970547498 0.201406795819
7633 1 38.6286352165 35.358179254 3.37883292742
7631 1 38.5777263537 36.5602958046 0.872298284433
8191 1 41.3856784296 36.4200799921 0.909478297152
8198 2 39.7414787982 37.6659727336 2.56192581263
8266 1 39.9292460015 38.5817414946 0.20337836315
356 1 45.6591453423 36.0847601017 3.60480218159
8761 1 43.3234620335 35.4700900204 2.96829859744
8751 1 44.1105212241 36.9261435737 1.43344033298
8758 1 42.0484682702 37.5819508379 2.9803822617
8826 1 42.5685177845 38.4007185844 0.237846060517
423 1 1.71635855742 40.8984041197 3.2594972022
986 1 2.9671493048 41.6928332628 1.22091429228
422 1 1.68608803699 39.7767005039 0.541110221939
8885 1 0.0414959804467 41.2524965052 1.5267464323
982 1 4.53030882392 39.9271749905 0.572023998457
983 1 4.42161328089 41.1699069498 3.06135981443
1542 1 7.2300683633 39.9667338228 0.428453977669
1543 1 7.27008017368 41.2686128926 2.97924238046
1546 1 5.85512348293 41.8499711871 1.13853940468
1549 1 5.92937949153 39.3213616907 2.41184551877
1547 1 5.84637764494 43.1198287717 3.68221590415
2102 2 9.86025497871 39.9444870195 0.243102332599
2103 2 9.92373477335 41.359941196 3.05131548438
2106 1 8.64315710018 41.8846863395 1.0593289279
2109 1 8.68367001769 39.3779095252 2.30753085152
2107 1 8.64919198986 43.1963422347 3.65500175269
2666 1 11.4264527769 41.8006940354 1.07273214422
2667 1 11.4722934332 43.1609589156 3.63272443876