ITEM: TIMESTEP
12000
ITEM: NUMBER OF ATOMS
8960
ITEM: BOX BOUNDS pp pp pp
0.0 45.68
0.0 51.0717926061
0.0 44.6878185303
ITEM: ATOMS id type x y z
569 1 3.03476778107 0.876194346148 2.32004098701
2 1 1.6115257118 1.72421092945 0.333749860199
566 1 3.04823056965 3.61676860428 1.0437335926
3 1 1.88566049219 2.94263959915 3.03134352112
8465 2 0.675097189456 1.20563907467 2.33494641688
8401 1 0.021753681905 3.47121421155 1.61646873629
562 1 4.40301282836 1.6288469964 0.440538596645
563 1 4.42965963391 2.98256922798 2.93917070164
1122 1 7.22516623291 1.72929879561 0.401241577778
1123 1 7.21699809274 3.06384607461 2.94121729079
1126 1 5.79239315058 3.65250545535 1.02523067699
1129 1 5.87379684226 1.11567325261 2.31862922335
1682 1 10.0006165454 1.75481655092 0.378719369167
1683 1 9.97037924637 3.0881638063 2.93479617366
1686 1 8.57255305422 3.70018003375 1.01455077487
1689 1 8.62778399861 1.15061703179 2.30675275107
2246 1 11.2774436277 3.76824623796 1.01255845007
2249 1 11.3638454015 1.15607283274 2.29633512728
2242 2 12.6616913074 1.99174531205 0.410447310395
2243 1 12.6881891767 3.10143258852 2.92577052817
2809 1 14.0272517943 1.16764772964 2.27528782895
2806 1 14.029844907 3.78776285469 0.98675278958
2802 1 15.2665945992 1.83937200672 0.348025691498
2803 1 15.331534759 3.07838336462 2.91928876484
3362 1 18.3757261399 2.09451630878 0.360266767209
3363 1 18.2572381759 3.25000201327 2.91876373513
3369 1 16.8383702845 1.32916077957 2.07389189416
3366 1 16.6718605498 3.69537764002 1.03719484169
3929 1 19.7874833542 1.14946759483 2.34598002992
4489 1 22.3225975542 0.494936268004 2.76079179263
3926 2 20.2712824159 3.51510392727 1.5839645843
3923 2 23.2400871462 2.40030622305 1.2553061355
4482 1 24.621360278 0.661537434907 2.27322441514
5047 1 25.7174207622 2.71372081444 1.51110540301
5046 1 25.7788862612 0.0857912731134 0.0883153848736
4486 1 23.3756137196 0.145027458123 0.0946265267981
5042 1 27.1896800784 0.762642853775 2.14542142272
5043 1 27.2706767794 3.29381964649 3.48104897864
5602 1 30.0706525467 0.809577042786 2.19738484682
5603 1 30.0457434767 3.29544680143 3.43489298702
5607 1 28.5968383863 2.65692450231 1.55380476088
5606 1 28.6656093638 0.191258461497 0.287464734013
6162 1 32.856564431 0.812849604191 2.18851353405
6163 1 32.8182811001 3.36508361797 3.42220506886
6167 1 31.4688022715 2.74092476325 1.51807146719
6166 1 31.4433129888 0.165337551089 0.29368588973
6727 1 34.2374110045 2.70658913257 1.54421536165
6726 1 34.2879573373 0.141734185583 0.310044282647
6722 1 35.6867182897 0.811576801482 2.19772128916
6723 1 35.6678771586 3.36010604457 3.44384993255
7287 1 37.0515548525 2.74227979687 1.5464313095
7286 1 37.0761091712 0.162107711688 0.289195237118
7282 1 38.5221039024 0.825969436979 2.17579643781
7283 1 38.4973842671 3.42426752552 3.43103736123
7842 1 41.2053062276 0.978369040142 2.10928454876
7843 1 41.2149374507 3.77120352633 3.28723243927
7847 1 39.7776584372 2.78606010886 1.47850559138
7846 1 39.8705033083 0.181996302864 0.189360602882
8407 1 42.8645018125 2.65553932367 1.23997920354
8402 1 44.0707001731 0.992353364488 2.61523586923
8406 1 42.5716516593 0.231138056314 0.341210841158
8 1 44.8548608476 1.21266059319 0.371406870566
8403 1 43.8659305598 3.79005453182 3.19623887326
6 1 1.65227309293 5.50415199724 1.75594774373
639 1 2.89901218388 7.55454802963 2.25027294819
567 1 3.05175261555 4.95707623276 3.64712137719
561 1 4.36186032453 5.60674765506 1.65593345166
1121 1 7.15383825663 5.61991526267 1.6287605157
1199 1 5.73936116598 7.55340563449 2.23501609427
1127 1 5.79881296812 4.98467927266 3.55333012
1681 1 9.92500427036 5.66587496645 1.6349426372
1759 2 8.53602317545 7.58155577093 2.25306920607
1687 1 8.57528524259 5.01851645352 3.55836847737
2247 1 11.3323025985 5.04663808476 3.55772876244
2319 1 11.3170076801 7.60122998147 2.25117799086
2241 1 12.6751587483 5.68932956818 1.62626009025
2879 1 14.0942532122 7.59131869154 2.25629126797
2807 1 14.0338731134 5.02880758608 3.56965156632
2801 1 15.366140288 5.6573000323 1.6291863804
3361 2 17.9307334845 5.62997740922 1.86882261133
3439 1 16.800067924 7.51205627111 2.34190085819
3367 1 16.5914095084 4.95199868964 3.58632711252
3921 1 21.6721442414 5.58060300802 1.7027846943
4559 2 20.5341313986 7.19305019127 3.06820004411
4481 1 24.1004890851 4.61183998471 0.57725315005
4552 2 23.7376518888 6.09060195532 2.4802782584
5048 1 25.8671121326 5.10561126409 2.79759694182
5116 1 25.6628920487 6.56553202071 0.804477120413
5119 1 25.6329746551 7.42629253393 3.66932927261
5041 1 27.1968071679 4.58279780601 0.931679760826
5112 1 27.4141576556 7.13597360782 2.19745053058
5601 2 29.8683734063 4.46274003334 0.820202356037
5608 1 28.688402759 5.21792400116 2.81795750376
5672 2 30.0202156849 7.33586799643 2.10497518961
5676 1 28.6063775301 6.47820392904 0.26498339523
6161 2 32.959481502 4.7312442536 0.975762912409
6168 1 31.3370130307 5.24848536661 2.76883382974
6232 1 32.7638284203 7.13690193713 2.16451496903
6236 1 31.3734064511 6.46129165404 0.27291838631
6796 1 34.1976508388 6.54515980666 0.26821843387
6728 1 34.2283197523 5.27212095618 2.83580143466
6721 1 35.6150645271 4.63985177936 0.913088182405
6792 1 35.6186337523 7.19374001163 2.1711787258
7288 1 37.0521474557 5.31797680915 2.7924267186
7356 1 37.0072394724 6.56452330877 0.26607496895
7281 1 38.4240962968 4.70246222063 0.874111041133
7352 1 38.4565368359 7.3187718158 2.1196732121
7848 1 39.7808431353 5.47610868665 2.76118553288
7912 1 41.374945669 7.55507435055 2.01816255689
7916 1 39.8252168164 6.61001327522 0.243989628988
7841 1 41.1896145084 4.56669858881 0.930550060576
8408 1 42.6460953792 5.76081746379 2.78679403389
8472 1 43.7895000789 4.8448614453 0.879869555334
8404 2 45.0310370326 5.92917969434 2.42125463571
8476 2 42.2558531503 6.34575688828 0.216834840674
76 1 44.0386640526 7.58075411074 0.711635136727
72 1 1.2209523064 8.23423937376 0.480461966553
73 1 1.47815026072 9.49818804128 2.91612111584
636 1 2.82034206243 10.1746304998 0.969007022805
637 1 2.99541466265 11.3717685827 3.50727127303
632 1 4.25354937761 8.21144252084 0.339838208868
633 1 4.3186235421 9.47605818628 2.82658773513
1192 1 7.11857957956 8.1960635934 0.327631405624
1193 1 7.11498767461 9.49037142469 2.86151072883
1196 1 5.6888638776 10.0999984843 0.90351573376
1197 1 5.7233995904 11.3921146671 3.48310340127
1752 1 9.92741965417 8.22974229167 0.32780478685
1753 1 9.95712401101 9.50585540313 2.87157719271
1756 1 8.51445915367 10.0994557845 0.985135438095
1757 1 8.5466619767 11.3848584378 3.49585920804
2317 1 11.368772038 11.3945841295 3.51886707955
2316 1 11.3465338709 10.1165463932 0.95647627114
2312 1 12.7124620991 8.22503323405 0.330926803561
2313 1 12.7416104585 9.50104170532 2.89071218856
2876 1 14.1732853358 10.0801486282 1.01159329252
2877 1 14.220234398 11.3758394534 3.53947769467
2872 1 15.5454667857 8.17658766012 0.347879025212
2873 1 15.5503233865 9.45593428771 2.88673596775
3432 1 18.3699767344 7.96122269725 0.466627549003
3433 1 18.5828979552 9.01667129322 2.80855397003
3436 1 17.0533865099 9.96968280995 1.07154466078
3437 1 17.0876498444 11.2567105194 3.4596238222
3999 1 20.918416692 8.22968781503 1.10637785957
3993 1 22.2181521287 10.0551723913 2.75242240255
3996 1 19.8749837482 10.2737827166 1.07303881682
3997 1 19.9587392025 11.041289189 3.32217344615
3992 1 22.5094941275 9.74941681 0.42269116453
4557 1 23.6564597915 8.21366277712 1.79924248885
4551 1 24.4414191748 10.8973231012 1.11929814235
5117 1 25.9196743797 8.97783376946 1.45398016614
4554 1 24.6992439088 9.65552113265 3.48978429469
5118 2 23.9070620581 11.7484798958 3.22328237462
5111 1 27.1226904749 11.0143930688 0.96905178083
5113 1 27.2002170584 9.69491162503 3.43131004238
5671 1 30.0059088653 11.0156271271 0.886626590721
5673 1 30.014027269 9.71172498644 3.42361101177
5677 1 28.6024637947 9.1305425397 1.51142204536
5678 1 28.596887614 11.6886908705 2.76626767971
6231 1 32.81370216 10.9719357993 0.847559887747
6233 1 32.7982126782 9.67379545112 3.43599030459
6237 1 31.4234995301 9.0872018817 1.50152730993
6238 1 31.4442316965 11.6098660715 2.77552976303
6797 1 34.1597538841 9.06047271963 1.52949730363
6798 1 34.1718819022 11.5879926246 2.78768463714
6791 1 35.5549535254 10.9751708669 0.854204558464
6793 1 35.5771961686 9.70172010392 3.42462289946
7357 1 36.9852668568 9.13207620937 1.51782324779
7358 1 36.9588329762 11.618071826 2.77550731023
7351 1 38.3233766064 11.0404229045 0.825206469574
7353 1 38.3868824252 9.74420750702 3.38672018953
7911 1 41.2023350448 11.4401059423 0.772968410639
7917 1 39.8832826939 9.30234250848 1.47713774666
7918 1 39.6787575477 11.6785203714 2.73511755109
7913 1 41.3430384275 9.91589961398 3.36416311148
8477 1 42.835901441 9.90551702184 1.1945105973
8473 2 45.0314715887 9.04727225239 2.2194789071
7914 2 43.2235684538 11.3751104653 3.68798664139
8474 1 44.7447449473 11.3507872147 1.89429435852
71 2 1.1271682854 12.0214178874 2.36825503307
706 1 2.86276720821 13.9178240133 1.99177325995
142 1 0.192716507989 12.6516409068 0.150001826083
141 1 0.18750531568 14.3287825799 1.98269229914
631 1 4.39200455305 12.0336203122 1.51435331135
1191 1 7.1211984385 12.009971085 1.56853218153
1262 1 7.13887865018 14.5652926854 0.282797044625
1269 1 5.7379800497 13.9252343971 2.123422785
702 1 4.27969496252 14.6300982584 0.16008835891
709 1 4.37840308117 15.6542111992 2.88701159984
1751 1 9.9575371663 11.998840023 1.59275888622
1822 1 9.98336920345 14.5249818302 0.309665981339
1829 1 8.5516233912 13.9191600785 2.19817329758
2389 1 11.3830617754 13.8944958716 2.23948397393
2311 1 12.7814786458 11.9890137712 1.62339333411
2382 1 12.7910936039 14.5003150203 0.346412079129
2949 1 14.2268748893 13.872550554 2.28297323848
2871 1 15.6239201834 11.9592886006 1.63665924512
2942 1 15.6024967894 14.5133618638 0.402564673661
3431 2 18.2880994404 12.0482141998 1.54558378683
3502 1 18.4730634046 14.4412619927 0.430758099527
3509 1 17.0481823732 13.907832277 2.33200384932
3991 1 21.9032055571 12.2151245363 1.77040311941
4069 1 19.8812723564 13.7655925039 2.37885796396
4062 1 21.3968684846 14.4052118735 0.302878982509
4622 2 23.2805903624 14.5090983708 1.81960575979
5182 1 26.1315387722 12.9998739746 2.03972666163
5742 1 30.0660770067 13.5301520714 2.17217034347
5747 2 28.7432958827 15.4632197933 1.39150706463
5746 1 28.4927541299 12.9374918046 0.419685630392
5183 1 27.1307519575 15.7118162448 3.25736914422
6302 1 32.8506963893 13.549296071 2.14866928765
6306 1 31.4183441955 12.8971176623 0.257902223702
6307 1 31.4402956687 15.4389705336 1.51540279714
6866 1 34.1894064043 12.8987551462 0.214312790731
6867 1 34.2630491124 15.4671864378 1.54793508455
6862 2 35.5650603834 13.4188066925 2.10053846495
7426 1 36.9199778628 12.9226855943 0.209165597131
7427 1 36.8777481913 15.5023650633 1.53533394809
7422 1 38.2661596647 13.6109803724 2.13806878562
7982 1 40.9977518848 13.6041369029 2.18803092152
7986 1 39.6023318089 13.0259178678 0.207775859213
7987 1 39.7370493456 15.4957562081 1.41886686945
77 1 43.3124297509 13.2184592379 1.82855502545
8547 2 42.3867594346 15.5766647299 1.4588039611
147 1 43.9605277754 15.5054496318 3.1359880101
8605 1 44.3363609638 14.8021837692 0.184775438181
143 1 1.74178426482 15.9526897699 2.72241009688
8543 1 0.719944799901 16.8476184819 0.642459485455
213 1 1.4822089989 18.7710267477 2.43196139611
703 1 3.20401118594 16.7981897781 1.11638835039
710 1 3.1782244497 17.7169750879 3.64066266037
701 2 4.00958767283 19.0189850395 1.95350869733
1263 1 7.18738247161 15.8268258624 2.87133507025
1266 2 5.79797557233 16.4966593192 1.07164932147
1261 1 7.28691776158 18.3727783105 1.60825741366
1267 1 5.73426521323 17.775830951 3.4466654108
1821 1 9.96888432585 18.355170546 1.58112981104
1823 1 9.98134154619 15.8188477316 2.86132851239
1826 1 8.57297845509 16.437385189 0.925385560295
1827 1 8.59299081678 17.7445198031 3.52096564291
2386 1 11.3786121341 16.4382498748 0.942797089274
2387 1 11.4073099621 17.7194012507 3.49443861927
2381 1 12.7979457008 18.333531046 1.581589084
2383 1 12.807387511 15.7983012521 2.87226962186
2946 1 14.202945461 16.4334455115 0.964490367318
2947 1 14.2031013836 17.7324926534 3.48654456753
2941 1 15.6499955978 18.3431412203 1.59691796082
2943 1 15.6175270848 15.8214534007 2.85876018492
3501 1 18.4993315679 18.3132525127 1.6066727725
3503 1 18.5188497477 15.8143237576 2.90970756546
3506 1 17.0751743597 16.4082124499 0.99526459052
3507 1 17.0561167162 17.7213625744 3.51178736645
4063 1 22.6095967164 16.4538547765 1.09549607672
4627 1 21.4720877494 15.8570782405 3.11077449506
4061 1 21.242197568 18.241473419 1.70115753415
4066 1 19.9329389678 16.2743850602 1.07567716762
4067 1 19.8686075135 17.7219000377 3.55036871475
4628 1 22.8764220144 18.0759371345 3.38082865264
5187 1 25.2038332008 15.7502997147 1.16238616877
4621 1 24.2382444253 18.0613155336 1.01332667307
5188 1 25.818916363 17.6855924283 2.78829595518
5256 1 26.0942045366 19.2710244192 0.293708167274
4623 1 24.29096777 15.9806500457 3.42528575604
5181 1 27.1627089591 17.2258641602 0.889566265993
5741 1 30.0149209794 17.3426474749 0.870868735627
5743 1 30.0483740593 16.0247825361 3.41695888329
5748 1 28.5595882441 17.8175662673 2.81376193829
5816 1 28.5820440172 19.2037432614 0.261313716539
6301 1 32.8317710997 17.3437447848 0.889084117143
6303 1 32.8492866349 16.0642367821 3.42701664084
6308 1 31.4132728721 17.9416607627 2.79566563171
6376 1 31.3855358652 19.2530117086 0.260505095313
6868 1 34.2109951985 17.9838116443 2.79144029684
6936 1 34.1619521749 19.3042126922 0.23611964535
6861 2 35.5724849603 17.4544311604 0.76046778742
7428 1 36.9563492595 17.9914421608 2.78473325811
7496 1 36.9934464566 19.3179453905 0.223962646138
6863 2 35.5835031144 16.1526121344 3.63337739031
7983 1 41.0904254148 16.001948196 3.36675037798
7421 1 38.3416566921 17.3891853134 0.870763373359
7423 1 38.321564962 16.076269649 3.39995834634
7981 1 41.2318618426 17.5230072646 0.966565595678
7988 1 39.7389949364 17.9722146302 2.79485587018
8056 1 39.815438078 19.2829804051 0.252240970073
218 1 45.5677588201 19.1689837642 0.505868597564
8610 1 43.9642211806 17.3284616002 0.90373644413
8544 1 42.7654127336 17.8974561658 2.97977753188
8616 1 42.7601005583 19.3865328942 0.292743301552
779 1 45.4238088188 17.3455319373 2.83611197236
776 2 1.66891248895 20.574665592 1.03562466023
220 1 0.724031049397 21.2244622243 3.1555118916
216 2 1.21230666532 23.4684515285 1.77591583845
772 1 4.13140410031 21.0127708396 0.443158463201
773 1 4.4161875867 22.3878824953 2.93351360829
1332 1 7.09976500953 20.8298986786 0.338940386711
1333 1 7.19930567909 22.2403105645 2.91019143485
1336 1 5.77837921035 22.7575098929 0.986014014602
1339 1 5.78886694095 20.3535600695 2.27913125592
1892 1 9.96600218028 20.8700126903 0.312255011721
1893 1 10.0380837946 22.1785673003 2.84778486673
1896 1 8.55530758604 22.764800214 0.961428130322
1899 1 8.57952088471 20.2993247452 2.24153124773
2459 1 11.3842053166 20.2378963584 2.19667453918
2456 1 11.3816550868 22.7744482305 0.910818792682
2452 1 12.8258179868 20.8720072369 0.30634178818
2453 2 12.7926705492 22.0998274637 2.73790422924
3016 1 14.1576473645 22.7843677883 0.924359351599
3019 1 14.2012412758 20.2042688593 2.21009201396
3012 1 15.5756029182 20.8388056197 0.279526687334
3013 1 15.4955584829 22.164642041 2.88403624401
3572 2 18.5658610063 20.4443913394 0.177999208868
3573 1 18.2940313767 22.3466826501 2.93162670057
3576 2 16.6697629593 22.7014899807 1.04014742056
3579 1 17.0423182433 20.3173206336 2.16825402316
4697 1 22.3489137363 20.4310840113 1.83398548354
4139 1 19.8126355261 20.3743645841 2.26399079326
4691 1 22.5280601833 22.8856698451 0.80319683098
4133 1 21.7904855862 22.079697894 3.63106683389
4136 1 20.4382382845 22.7651521407 1.97751530062
4692 1 24.6484573705 19.8355404423 2.45587329199
5257 2 26.0537048829 21.5791914706 1.46814035557
4693 1 24.0366867196 22.1826615185 2.52061443664
4762 1 24.9857705646 23.1646434736 0.174814790549
5252 1 27.2112313448 19.7575838849 2.34656681082
5253 1 27.1027111663 22.4445148816 3.44836264632
5812 1 29.9482551199 19.8072168976 2.20281866911
5813 1 29.9691793409 22.3892857512 3.46709582493
5817 1 28.5943763897 21.6954459011 1.57468150519
6372 1 32.7896299166 19.8735550207 2.17028245878
6373 1 32.7591706277 22.4270741053 3.44248258095
6377 1 31.3537065227 21.7669684745 1.53958074314
6937 1 34.1660722288 21.8092241347 1.52406937116
6932 1 35.579787577 19.8966381104 2.1489516797
6933 1 35.5743417436 22.4320008912 3.4347852532
7497 1 36.9915265432 21.8074411293 1.50956877885
8052 1 41.257322514 19.796068162 2.19972614823
7492 1 38.3721872429 19.8843477631 2.13036682424
7493 1 38.3847611535 22.3988959364 3.42731808721
8053 1 41.2199531284 22.2987600855 3.51848459463
8057 1 39.8547424834 21.7691365646 1.55145932684
8548 1 44.0614545048 19.8011602537 2.2775754133
8617 1 42.6754640735 21.7244913361 1.71473813043
8604 1 45.1681463738 21.6107537391 1.00906769722
8680 2 43.8434618298 23.1880799116 0.208913330998
211 1 0.810106518523 25.7387396298 2.48361268933
849 1 3.19545546072 26.6499855054 2.75258937723
777 1 2.90805275394 24.2962700007 3.34240190106
219 1 2.65152090972 24.7353807385 0.686446836321
282 1 1.84451952251 27.2240780391 0.979941475771
288 1 0.214244707341 25.1735657813 0.141989620622
771 2 4.62114886978 24.7179201604 1.65456295665
1331 1 7.20003687106 24.6909293955 1.68351928503
1409 1 5.76241341875 26.6137657158 2.45096681111
842 1 4.35974289174 27.1367991893 0.469454789469
1402 1 7.18599083235 27.2050843237 0.387344334789
1891 1 10.0153174346 24.6601343975 1.59342697122
1969 1 8.67577439342 26.6232763782 2.20361787051
1897 1 8.65724337618 24.0760733014 3.52353421156
1962 1 9.99406775062 27.2332047169 0.296675748692
2529 1 11.3798361318 26.5973858195 2.23215508483
2457 1 11.424505903 24.0607535279 3.51348843198
2451 1 12.7699163 24.6887894375 1.57854585208
3089 1 14.1291970778 26.6247378924 2.22179171358
3017 1 14.129286578 24.0866259626 3.50872581916
2522 1 12.7515312841 27.2557794011 0.298265129717
3011 1 15.4178902029 24.7337460593 1.55961789476
3571 2 18.8807832883 24.587351843 2.04131582972
3649 1 17.0319403474 26.5332855882 2.0700123479
3577 1 16.867991394 24.1240380544 3.43593851929
3082 1 15.4985567087 27.3203971373 0.315314024271
4131 1 21.0965678239 24.9617044979 1.13577086502
4209 1 19.7341677238 26.8140673084 2.09322508259
4202 1 21.8700712495 26.4348208392 2.8928255368
4698 1 22.7311251895 24.2382152314 2.84875794518
5329 1 23.4266053642 25.4724275839 0.85403091007
5326 2 25.8642549951 25.2338355652 0.712390933686
5258 2 25.0093402808 23.8254741008 3.72029248961
5251 1 27.337964314 23.6079165342 0.951525125785
5811 1 29.9646092957 23.6912381966 0.920064470484
5322 1 27.2365768313 26.2804968382 2.24745084793
5818 1 28.6512994635 24.3057371815 2.86309810692
5882 1 29.9161194203 26.2942085125 2.21428127895
5886 1 28.5374608487 25.6040762252 0.299316402214
6371 1 32.7372515105 23.7209902925 0.900863571572
6378 1 31.3430679551 24.3546399711 2.83273733419
6442 1 32.7282704927 26.2808101125 2.19261987796
6446 1 31.3233639389 25.6504171331 0.283188946398
7006 1 34.1469752257 25.6410784703 0.267153088015
6938 1 34.1466640919 24.3502058108 2.80781104865
6931 1 35.5707823869 23.7243010643 0.892545540514
7002 1 35.5581293715 26.2537592203 2.16906550582
7498 1 36.9820524553 24.3307033333 2.80097437207
7566 1 36.9946517317 25.6189884729 0.2624076347
8051 1 41.3344675209 23.6200158202 0.88422041989
7491 1 38.4427688542 23.6935862529 0.910091074798
7562 1 38.4052561333 26.2207446176 2.18468695799
8058 1 39.8277122307 24.2659587339 2.84663111648
8122 1 41.1155027082 26.2624826898 2.27452356309
8126 1 39.7978068879 25.5932862803 0.264723512657
8611 2 44.5692422354 24.4748341813 3.24595270822
8618 1 42.3935018276 24.2571344547 3.03910919242
8682 1 43.8442965917 26.2187231675 2.09963517103
8686 2 42.2279944966 25.7214539411 0.421638808711
286 2 1.02230263433 29.2674632759 0.651711786818
846 1 3.22757151987 29.2237454034 1.15123303369
283 1 1.16026403952 28.3234688405 3.0964368693
847 1 3.03659831926 30.4790392379 3.58695364488
281 1 1.66160599622 31.2308964322 1.5780215469
287 2 0.454197257657 30.3955780993 3.61311943474
843 1 4.54133299141 28.5553296345 3.11542798787
1403 1 7.27216545708 28.52815752 2.94711952192
1406 1 5.83771845038 29.0773919898 1.08807642559
1401 1 7.22237962464 31.0737523519 1.6341185409
1407 1 5.92236786092 30.4579674249 3.62798293667
841 1 4.58840358814 31.0906244443 1.77889204577
1961 1 9.99818365246 31.0827845841 1.59915738554
1963 1 10.04071676 28.5589639391 2.86543910045
1966 1 8.6023726698 29.1486144061 0.984000767405
1967 1 8.6552669202 30.4633844273 3.53161228666
2526 1 11.3826081614 29.1691395806 0.937836780334
2527 1 11.4114877573 30.4648570024 3.50265206771
2521 1 12.7621969559 31.0957008305 1.57961644383
2523 1 12.7629283969 28.5304589302 2.87316781318
3086 1 14.1271107438 29.1898774522 0.95087617173
3087 1 14.1593274419 30.4352626558 3.51483712974
3642 1 18.3446128333 27.5976568335 0.208261526166
3081 1 15.4932758825 31.1237652214 1.58818104197
3083 1 15.5593925621 28.4933381417 2.85141433241
3643 1 18.3140445082 28.530657473 2.81364181347
3646 1 16.8588297126 29.2414523046 0.975231587008
3647 1 16.8937916635 30.4633000122 3.50180294313
3641 1 18.195628817 31.1695420653 1.57744706528
4208 1 21.4527601231 27.6671720112 0.562959420474
4203 1 21.277549725 29.0366357171 3.03226752077
4201 1 22.5205903791 29.7551823293 1.18031637261
4206 1 19.7703537016 29.3906964054 1.02708446713
4207 1 19.4392796258 30.5043294522 3.47957849044
4836 1 20.9348053568 31.3563056967 1.74726335426
4767 1 23.5707198677 27.7075157824 1.89040676828
4768 1 23.0439419953 31.1608921717 2.99143789291
4761 1 24.8627430858 30.3157412148 1.6420029306
5327 2 25.9253448753 28.3115717128 1.51603419095
4763 1 24.706963405 28.8063775807 3.64939589958
5323 1 27.1380364057 28.9988165574 3.54650921122
5321 1 27.1790166645 30.19598838 0.972349192053
5881 1 29.9170133429 30.1433291514 0.953025457981
5883 1 29.9181643209 28.8616126803 3.52687761084
5887 1 28.5190168865 28.2288301083 1.59376347691
5888 1 28.5812896237 30.8052701924 2.91483754392
6441 1 32.7668775413 30.1221872856 0.940393074611
6443 1 32.7441360643 28.8361169282 3.47839154985
6447 1 31.3195102476 28.2132359234 1.57293023864
6448 1 31.3529390544 30.7701687833 2.86551136515
7007 1 34.1498641254 28.1843551085 1.54716777699
7008 1 34.1880389206 30.7503581617 2.83066934038
7001 1 35.5624763379 30.1020581922 0.895147843599
7003 1 35.5270369024 28.7746837143 3.46885210283
7567 1 36.9729315439 28.1678618983 1.54772826679
7568 1 36.8898454421 30.6442488235 2.8834704539
7561 1 38.33758037 30.1345057597 0.946770253426
7563 1 38.3445949314 28.764401815 3.50028002712
8121 1 41.1010965561 30.0580889478 0.906771055196
8123 1 41.1579581829 28.7126099353 3.48797916659
8127 1 39.7153506182 28.1901414528 1.57853026827
8128 1 39.7462230046 30.6416422323 2.87361954526
289 1 45.1929699054 27.7904256369 1.26851952963
8681 2 43.7312142954 30.1400489224 0.999617864973
8687 1 42.5381368785 28.1416150562 1.47427361259
8688 1 42.5367569357 30.5708534385 2.91850842173
8683 1 44.0574008011 28.738858468 3.34621085056
353 2 1.98587408722 34.8524984692 2.71819179677
919 1 3.0942690578 33.022751052 2.09716390637
8753 1 0.35023591433 33.7168474601 1.36740371897
912 1 4.61618653258 33.6452776731 0.335540415315
913 1 4.50281952471 34.9732468218 2.91927040471
1472 1 7.27987655402 33.6515166226 0.359610647034
1473 1 7.30468862962 34.9510995318 2.93234765654
1479 1 5.9249938113 33.0692772747 2.29622866938
2032 1 9.9985411993 33.6585141784 0.318845338325
2033 1 10.0438520146 34.926100469 2.88373514913
2039 1 8.65000237254 33.0071624126 2.25546570171
2599 1 11.3796425438 33.0032669121 2.21607550361
2592 1 12.7533701531 33.6733298305 0.291047768131
2593 1 12.7395383773 34.922949098 2.83164358341
3159 1 14.1221596313 33.0230790262 2.22044198252
3152 1 15.4738704697 33.6685227637 0.298543337877
3153 1 15.4379254416 34.9649993687 2.85071544293
3712 1 18.2546034696 33.6923698009 0.399625988262
3719 1 16.8243861557 33.0550660661 2.22661111704
3713 1 18.1735078125 34.9967572263 2.78374991906
4279 2 19.576005368 33.0402931027 2.38115974278
4839 1 22.0445614194 33.4434578342 2.66791249797
4272 1 21.0860865018 33.2226554322 0.249805312804
4837 1 20.2585752848 35.126963584 1.60628627274
4824 1 23.11186591 32.2116273851 0.660152929276
4838 1 22.9631665655 34.8539755272 1.0679798545
4832 1 24.4801567204 32.9795524977 2.38725231827
5396 2 25.9111646218 32.3697191516 0.610095804376
5397 1 25.6777992216 34.9264472868 1.68236381886
5392 1 27.1801028828 32.7253627683 2.39774723531
5393 1 27.2106860084 35.3200107283 3.50447578473
5952 1 29.9839695463 32.7241440761 2.25484627252
5953 1 30.0484168582 35.2899123851 3.51669825335
5956 1 28.5399462415 32.1129710495 0.414950043408
5957 1 28.6270525255 34.6900694496 1.66811271147
6512 1 32.8021458789 32.6811296413 2.2150257684
6513 1 32.8513835597 35.234866919 3.47302163445
6516 1 31.3882622756 32.0456538741 0.335188148948
6517 1 31.4343643647 34.619797297 1.58757869411
7076 1 34.1939567173 32.0501330326 0.280502747774
7077 1 34.2382120891 34.5878288105 1.53899705837
7072 1 35.6159822621 32.68129351 2.19046157117
7073 1 35.6552467217 35.1995791914 3.44219824924
7636 1 37.006465678 32.0798626566 0.27325531511
7637 1 37.1707811853 34.5827893567 1.54072713457
7632 2 38.1750188642 32.3781192273 2.34896971603
8192 2 41.2941735616 32.3022053753 2.32017938398
8197 2 39.7532726241 34.8723835348 0.969531095373
8196 1 39.69597338 32.1698470476 0.351110394175
358 1 45.4082626123 31.7348597833 0.0970532248437
8752 1 43.7706382805 32.5519800103 1.95291804278
8757 1 42.1981444343 34.5328776624 1.48646015589
8756 1 42.3102637092 31.9757025705 0.228825950733
8761 1 44.0037649677 35.1907164932 2.93166753322
359 2 45.0308175765 33.3138712446 3.5549990419
916 1 3.17949973936 35.4239203242 0.920859774606
356 1 0.80853319063 36.2134894671 1.30453427984
351 1 1.17600476307 38.4999966035 2.01512065303
917 1 2.96515965196 36.9747849165 3.16092364936
988 1 2.96117127324 37.9294906119 0.331304971879
911 1 4.71324592477 37.4931811367 1.68515830402
1471 1 7.31086834901 37.5347643345 1.63913744766
1476 1 5.94916910092 35.5697861345 1.02500866441
1477 1 5.90229926054 36.8659519554 3.58878039044
2031 1 10.049855399 37.5256889691 1.58608589549
2036 1 8.65307299737 35.5952516389 0.97906169008
2037 1 8.70527606765 36.852461999 3.51676547272
2596 1 11.3808793717 35.5954086064 0.93122099475
2597 1 11.4470826202 36.8540253518 3.50663935982
2591 1 12.7597401466 37.5353969675 1.54879502786
3156 1 14.1169421744 35.607003245 0.92864139514
3157 1 14.0435103202 36.9010153427 3.4448448993
3151 1 15.5132538965 37.5187595694 1.60509193758
3711 1 18.3873594339 37.3074558209 1.70613986505
3716 2 16.7770684157 35.5914368668 0.933921835615
3717 1 16.8719540781 36.8314058428 3.51276192335
4276 1 21.52081733 37.221471045 1.1097847407
4273 1 21.8850027722 35.8809394039 3.26053083482
4277 1 19.8172469547 36.7854453156 3.51294015034
4902 2 23.7555952943 36.6900851106 2.43626089675
4831 1 24.4920385919 36.8380211651 0.423065880729
5398 1 25.8829197158 37.2354779112 2.79022370773
5466 1 25.9392914918 38.6386223922 0.127090177635
4907 1 24.4059784424 39.1347591817 1.99122926688
5391 1 27.2702177928 36.6209087361 0.86744156795
5462 1 27.234229618 39.1275053326 2.11562607504
5951 1 30.0414186571 36.5389990054 0.898973460364
5958 1 28.6360047826 37.200645224 2.81490745052
6022 1 30.0829826558 39.0768828839 2.14851371385
6026 1 28.6890530712 38.4941356955 0.223511112588
6511 1 32.845714384 36.5030179494 0.891616739628
6518 1 31.4692416635 37.1580284192 2.80696094222
6582 1 32.8925366572 39.0579542966 2.17151699912
6586 1 31.4624902918 38.4398657314 0.267408717211
7078 1 34.2767047839 37.126817044 2.8002786651
7146 1 34.2909626737 38.4193181878 0.296612177334
7071 1 35.6935856018 36.4765956688 0.905966671374
7142 1 35.6869530999 39.0472404719 2.20677015527
7638 1 37.09117177 37.0920575235 2.79416120252
7706 1 37.0207639354 38.4929510816 0.24842393812
7631 1 38.4160657012 36.6576863569 0.688495989681
7702 1 38.481690977 38.9583142072 2.20335811754
8191 1 41.3421737927 36.727925506 0.614324420629
8198 1 39.8694035803 36.931188578 2.75929403932
8262 2 41.0975121714 39.0599025024 2.09191108365
8266 1 39.8041554911 38.5439332582 0.180812174764
8751 1 44.1600726082 35.8752043845 0.715543615834
8758 1 42.3819533297 37.064363221 2.81856680526
8822 1 44.6578325025 37.7162002548 2.18897868461
8826 2 43.4068325337 37.856797057 0.0404560011922
989 1 3.2465997557 39.4942756587 2.35876433274
423 1 1.52900909746 41.3380082505 2.81588104119
986 1 3.20071529791 41.9945669034 1.04051373161
422 1 1.91986307053 40.078484994 0.378682474587
987 1 3.1989107802 43.1982081305 3.621684628
982 1 4.49101559202 40.0540365331 0.342763506535
983 1 4.53093113231 41.3931374788 2.89735463182
1542 1 7.31405905522 40.1485786503 0.329262183574
1543 1 7.35826995126 41.4269587645 2.77565412711
1546 1 5.87985769783 42.0304873975 0.94314665677
1549 1 5.93270032853 39.4893413661 2.26353980956
2102 2 10.0468538061 39.9858272822 0.343897270179
2103 1 10.0744099747 41.4181313038 2.83436425167
2106 1 8.74507883966 42.0610113194 0.897920036308
2109 1 8.70203939514 39.4792901491 2.22658712512
2666 1 11.3847005221 42.0422467754 0.912872688026
2669 1 11.4301634562 39.469161646 2.21805870245
2662 1 12.7880192832 40.1205374907 0.308380157579
2663 1 12.7555821414 41.3785401918 2.87256663188
3226 1 14.1983865917 42.0013995874 0.97675939894
3229 1 14.151439201 39.4306615563 2.26220649746
3222 1 15.6099640032 40.0488427877 0.371962425231
3223 1 15.5601353994 41.318496071 2.92654262729
3786 1 16.9582420726 41.9955603252 1.03856640705
3789 1 16.9245423018 39.3298204466 2.34484913355
4346 1 18.3540813264 41.2711738595 2.97224420608
3782 1 18.2321635719 40.0089122322 0.468189449869
3787 1 16.9694498294 43.196603879 3.62444702535
4271 2 21.9754516397 39.3792730456 2.07249707353
4349 1 19.7317820075 39.2975078655 2.30076968354
4342 1 21.3129466802 41.3823640798 3.41220043795
4410 1 19.5581819544 41.8632464726 1.11957064111