ITEM: TIMESTEP
20000
ITEM: NUMBER OF ATOMS
8960
ITEM: BOX BOUNDS pp pp pp
0.0 45.68
0.0 51.0717926061
0.0 44.6878185303
ITEM: ATOMS id type x y z
569 1 2.83590445392 0.727489270704 2.22108985607
2 2 1.7585327694 1.77522164835 0.199320617192
566 1 3.02373037051 3.53630547564 0.941719480507
3 1 1.57564604984 2.7069488526 2.78329743984
8465 2 0.403384111361 0.164339535475 2.62829900212
8401 1 0.220740673325 3.39519564951 0.864251780568
562 1 4.34615329917 1.57991296709 0.331783598923
563 1 4.33205047944 2.87982212815 2.86077216217
1122 1 7.16912293306 1.6576507513 0.298893564592
1123 1 7.17478711311 2.96321168063 2.86066022858
1126 1 5.73148002294 3.55000326236 0.94944309127
1129 1 5.81572056004 1.06835219785 2.22080474495
1682 1 9.93760193773 1.6723654709 0.29427839054
1683 1 9.95759411217 2.97299869412 2.86480575197
1686 1 8.55500583533 3.58575299051 0.940583624216
1689 1 8.58084430001 1.04205328599 2.21757411224
2246 1 11.293943998 3.61079146684 0.90950507016
2249 1 11.3363291937 1.05666592599 2.21973606494
2242 2 12.5599403967 1.64380287639 0.093363080527
2243 2 12.5832172792 3.05225545631 2.84472713254
2809 1 13.8744586092 1.20194904659 2.19993346641
2806 1 14.0876447571 3.46725706643 0.920924156554
2803 1 15.8451956912 3.07579093384 2.98530982742
3362 1 18.0482622515 2.32260609787 1.24018076454
3369 1 15.930057291 1.42813328084 1.28856989371
3366 2 16.3693433229 3.77768737737 0.652320915255
3851 1 17.6180166147 0.134635755027 2.35996001748
3929 2 19.198140049 1.26577000379 3.328761281
4411 2 21.3034665455 0.521216065923 0.981905502472
4489 1 22.6596603294 0.701220401609 2.81006071684
3921 2 21.3145416269 3.86956829217 1.91025845059
3923 1 23.0489597286 2.66593357921 1.06958974564
4482 1 24.7988546523 0.724137136015 2.20776324526
5047 1 25.9508758717 2.67852074705 1.57079118409
4483 1 24.3733149337 3.16764020998 3.35936257109
5046 1 25.9203239762 0.105668497476 0.194852006511
4486 1 23.3730426528 0.173128920348 0.270107151148
5042 1 27.364070951 0.756621989373 2.15558518643
5043 1 27.2995416143 3.32605410825 3.53355505924
5602 1 30.0984487092 0.830605842302 2.24594927409
5603 2 30.0541088171 3.29352792082 3.64574589769
5607 1 28.7373259553 2.72602743676 1.62560335077
5606 1 28.7532678862 0.142851642816 0.29400623306
6162 1 32.8671137307 0.87798026392 2.22144059641
6163 1 32.840048383 3.41964510979 3.49577918934
6167 1 31.4397359745 2.77821959658 1.6040389723
6166 1 31.4892039351 0.197127287975 0.318129400713
6727 1 34.2636211683 2.79987888431 1.58723644022
6726 1 34.2953004976 0.222157882463 0.320946202841
6722 1 35.6926111374 0.909233369725 2.22175479312
6723 1 35.6857959899 3.43657284675 3.4636764731
7287 1 37.1404016366 2.84513780651 1.57967674377
7286 1 37.0516340515 0.191106875782 0.346906059328
7282 1 38.4726604193 0.853856644822 2.21063252435
7283 1 38.5391077727 3.39950088408 3.54099177472
7842 1 41.4777623249 1.10528622274 2.23676893551
7843 1 41.1094390398 3.2604650282 3.5469542137
7847 2 39.7935541327 2.66944417635 1.46948133563
7846 1 39.95788862 0.185059296908 0.357419662996
7841 1 41.7892172275 3.71801546357 1.41528504107
8407 1 43.6250933698 2.4461444071 0.659708051362
8402 1 44.020550946 0.88794138242 2.41427836434
8406 1 42.7742764422 0.127901223792 0.420207768515
8 1 45.2973523387 0.785684887644 0.257885507888
8403 1 43.7175950381 3.23363112396 2.96410213379
6 1 1.59566569444 5.40615556665 1.4501768191
639 1 2.86314755966 7.4246983362 2.17325270086
567 1 2.88096236766 4.77916737665 3.45571382516
1 1 0.0856272510302 4.58885999851 3.08766273079
8404 1 0.0873382243806 7.13204533944 2.03210166611
561 1 4.3257256495 5.4992914547 1.57864443511
1121 1 7.13641011303 5.48901223721 1.5883651294
1199 1 5.73947224456 7.40999451011 2.2379010045
1127 1 5.73159803881 4.84674521079 3.48917719369
1681 1 9.92725604462 5.51246968842 1.59293979471
1759 1 8.52191461986 7.42289472112 2.24113951582
1687 1 8.55412167456 4.8772091998 3.51440283121
2319 1 11.3215923362 7.40443596692 2.26894131161
2247 1 11.3097576053 4.91910737462 3.54038644856
2241 1 12.7301855193 5.44926903562 1.62163586275
2879 1 14.0490123987 7.44848847232 2.29104595143
2807 1 14.1195465519 4.87006165689 3.56818257977
3363 2 18.3440429355 3.99076876192 2.91753954777
2801 1 15.3296964897 5.56847610415 1.62314647279
3361 1 18.1286581987 5.41896424289 1.19973064278
3439 1 16.9052965268 7.36686491996 2.33137274623
3367 1 16.7148217749 5.1923010763 3.67695827574
3432 2 18.0390017522 7.79478222917 0.325008103447
4559 2 21.0103522384 6.94239407536 3.1002938657
3999 1 20.0757469064 6.92329521872 0.907338824509
4556 1 22.5277714645 5.27062118833 0.487828974612
4557 1 22.6082635991 7.50274175988 1.53819963969
4481 1 24.6717527947 4.49844178153 0.78595600716
4552 1 24.6560166572 6.93962049999 2.2591615402
5048 1 25.8702030368 5.08991500327 2.87871206856
5116 1 26.043737042 6.43802967228 0.310766891119
3995 1 23.0850753679 5.24559139881 2.82166732757
5041 1 27.3323640922 4.55713330012 0.917354646612
5112 1 27.300651938 7.08231682371 2.32757054402
5601 2 30.0548806463 4.7122579984 0.833580337217
5608 1 28.6951478686 5.21451366723 2.86718335872
5672 1 30.0257974707 7.17941662761 2.24305469216
5676 1 28.6163831203 6.58382520277 0.316671606922
6161 1 32.829594654 4.68448744782 0.959847746063
6168 1 31.4109378564 5.27260417487 2.85696034907
6232 2 32.8336985817 7.22579098443 2.22795288847
6236 1 31.4528364553 6.59481603267 0.328925334971
6796 1 34.2451766766 6.60547459685 0.298885093863
6728 1 34.2454808351 5.3133887487 2.84219556006
6721 1 35.6415843867 4.72351664365 0.931853978684
6792 1 35.5905280307 7.27502285989 2.23745606769
7288 1 37.0877795911 5.33497741206 2.83120543846
7356 1 36.8771874313 6.80404928674 0.224715004008
7281 2 38.1587654009 5.13893200555 0.811216220348
7352 1 38.4831017472 7.27167154967 2.15755966022
7848 1 40.0187863655 5.20685835359 2.42935194688
7912 1 41.2242236252 7.36572474413 2.02603507526
7916 1 39.7520568839 6.77391725411 0.156198863644
8476 1 41.8655323219 5.81208651165 0.452656044979
8408 1 42.9413729996 5.46845277687 3.11958994072
8472 1 44.1077019922 4.74727829623 1.01839660931
76 2 43.6866268479 6.84590611682 1.09963046805
72 1 1.43432409045 8.1210716517 0.189429150456
73 1 1.45277070718 9.39430620931 2.97492027077
636 2 3.06878869303 9.72975433512 1.01248294533
637 1 2.86800411437 11.2684872858 3.68920317471
632 1 4.35668904224 8.00171501602 0.291913062299
633 1 4.30133021294 9.3496534077 2.91172643917
1192 1 7.12806416267 8.05195088627 0.317073738891
1193 1 7.12195784297 9.34326679203 2.87838337353
1196 1 5.73125337594 9.94835447246 0.956021000892
1197 1 5.73409856973 11.2588338667 3.52785034092
1752 1 9.91428579527 8.05728907094 0.326626041884
1753 1 9.9109393955 9.34291752735 2.89561990371
1756 1 8.51469300954 9.97998639213 0.953346959402
1757 1 8.51505382376 11.2678558776 3.52202403506
2317 1 11.2981380393 11.2742906097 3.54971408778
2316 1 11.2899304421 9.98709108851 0.983662121332
2312 1 12.6545106809 8.07738651041 0.351051700363
2313 1 12.6776863537 9.35266166059 2.93149123644
2876 1 14.083192456 9.94370891702 1.02240891211
2877 1 14.0883743656 11.2361924642 3.60355253555
2872 1 15.4496672728 8.02784866041 0.371853705229
2873 1 15.5004273137 9.29840496768 2.98035311439
3433 2 18.0845373315 9.46292085739 2.87905399018
3436 1 16.8038338896 9.91359998959 1.02073360707
3437 1 16.7547605609 11.2992779344 3.57424902526
3993 1 21.6785841434 9.49673351074 2.80084599046
3996 1 19.5535933093 9.83846252392 1.16881550297
3997 1 19.6328535195 11.0690475639 3.4721907398
3992 2 21.3067971934 8.72376972902 0.29511616743
5117 1 25.9114931471 8.97913746617 1.75414669053
5118 1 23.3174204258 10.0912462947 1.0708937852
4551 1 25.5158498858 11.2546963351 2.48076450067
4615 2 24.626025554 8.15947316177 0.103561092167
4554 1 24.0956942257 9.3368068064 3.33857666649
5111 1 27.2221455419 10.9232908443 0.891110620971
5671 1 29.9960695956 10.9973894182 0.972901948447
5673 1 29.9852552211 9.74581301423 3.52971290705
5677 1 28.569233546 9.07528275525 1.64143670475
5678 1 28.5394240184 11.5979637226 2.85849907527
5113 1 27.0380973831 9.78971734895 3.68518778699
6231 1 32.7964060621 11.0492041728 0.974282409506
6233 1 32.8142669309 9.76393380917 3.51230068531
6237 1 31.4057893357 9.11885895504 1.61468663861
6238 1 31.4116949874 11.6540198259 2.87617460233
6798 1 34.2085959465 11.6639308739 2.87789225912
6797 1 34.2071730613 9.17294736161 1.59175222821
6791 1 35.5984031516 11.0899616025 0.958083396176
6793 1 35.6399820859 9.7819456881 3.47475788068
7357 1 37.0240711627 9.16786350885 1.54598276651
7358 1 37.0664898872 11.6990187762 2.83325534252
7351 1 38.4238713294 11.1124328286 0.859188047241
7353 1 38.5032136756 9.83141419247 3.43605888988
7911 1 41.0059942272 11.2265537495 0.751583000729
7917 1 39.7887931769 9.22728450633 1.45864739855
7918 1 39.7865110957 11.7796359007 2.82464915709
7913 1 41.3852251793 10.0219901453 3.47774474909
8477 2 42.1972071769 9.48215808369 1.23429828635
8473 2 45.3828938986 9.27936348791 1.45377718317
7914 2 43.5639635851 11.0537742239 3.42184044011
71 2 1.03432323992 11.9154382135 2.51093793883
706 1 2.81235538196 13.6046060287 2.24861050765
141 1 0.149804387921 14.0867009158 2.13408613778
769 1 2.28746598904 15.0956756336 0.343760196144
142 1 0.817597825948 12.5516105062 0.346322519037
631 1 4.41384812386 11.8439148712 1.61860180834
1191 1 7.10913275951 11.8904052748 1.56197634597
1262 1 7.12126351217 14.4403308135 0.312338578282
1269 1 5.79824521089 13.7763620616 2.29657217681
702 1 4.51213570276 14.5548897712 0.554076742898
709 1 4.24152686174 15.5988283712 2.75127706638
1751 1 9.90593243278 11.9077358084 1.60323367379
1822 1 9.9212569584 14.4522936968 0.296908481631
1829 1 8.52188629261 13.8263637711 2.23656795153
2389 1 11.3099768396 13.8286556934 2.23940780583
2311 1 12.6951467814 11.8883925661 1.6315538522
2382 1 12.7050289037 14.4560068987 0.303215864747
2949 1 14.05506194 13.8289170348 2.23854830527
3431 1 18.1992021449 11.8414029297 1.70020730778
2871 1 15.3907181568 11.8622609542 1.6660875192
2942 1 15.4687092023 14.4366398895 0.315667799291
3502 1 18.338371415 14.4444913885 0.529616295099
3509 1 16.796738683 13.7386641196 2.29907393482
3503 2 18.0870980117 15.6342027368 2.76198218031
3991 1 21.2101916646 11.9616229553 1.7260075474
4069 1 19.6318763866 13.593359008 2.47210541577
4622 1 21.9055175651 14.3949593372 3.15011720774
4062 1 21.240422986 14.1791704051 0.333284826224
5186 2 25.9111716847 12.7616072762 0.529930364936
4626 2 23.1132167481 13.714616749 1.38485023786
5182 1 27.111120174 13.5388828716 2.31645279678
5742 1 29.9967940373 13.5366066762 2.24638416722
5747 1 28.6068721988 15.4426919693 1.64332664027
5746 1 28.5817134981 12.8956308674 0.413377993949
6302 1 32.839243743 13.5899702599 2.24307311567
6306 1 31.4006390648 12.9565980087 0.354310473286
6307 1 31.427271343 15.4739558587 1.61368477651
6866 1 34.1906147186 12.9887215819 0.318917431395
6867 1 34.2564820377 15.4989105523 1.65317976576
6862 2 35.6318445019 13.4857900071 2.16236741773
7426 1 37.0465838127 13.0145214516 0.233222726074
7427 1 36.9634275821 15.5469621037 1.64457314515
7422 1 38.3875547416 13.6682814056 2.18446643442
7982 2 41.026306519 13.5843771341 2.01356055577
7986 1 39.7168599918 13.0801129835 0.10025027688
7987 1 39.7600390269 15.57581035 1.5771409577
77 1 43.5138579513 13.3728037518 2.32391468296
8547 1 42.3551171186 15.5827478434 1.80775182821
148 1 42.4988362719 12.9931709457 0.338994713334
8605 1 43.8709993045 15.06036082 0.228300359771
143 1 1.76584172535 15.7971317309 2.84872449426
8543 1 0.308184038755 16.2471639471 1.11228545942
703 1 3.13772895611 17.2069836016 1.17774681333
710 1 3.0826399377 17.691897152 3.54946599905
779 1 0.368865462781 17.9212420907 3.00880146781
218 1 0.526952337229 18.4225567738 0.552805118894
701 2 3.78930007995 19.3413440397 1.96744328443
1263 1 7.13487908545 15.7769429467 2.85834246093
1266 1 5.7852640375 16.4339707157 0.908822660795
1261 1 7.28909971269 18.2901998041 1.55481558582
1267 1 5.5179109185 17.6609776678 3.05609044193
1821 1 9.92114643427 18.3053148372 1.55160307056
1823 1 9.92444219873 15.758691979 2.85961503202
1826 1 8.54558642516 16.3589495552 0.904720918873
1827 1 8.53351571856 17.683794171 3.50162848246
2386 1 11.3117866989 16.3867074179 0.918761695758
2387 1 11.3158305559 17.6934547156 3.49745310801
2381 1 12.740673878 18.2868485451 1.57181647791
2383 1 12.6925623829 15.7721628751 2.85686446981
2946 1 14.1105418256 16.3850747774 0.922323770611
2947 1 14.1240292749 17.6866042001 3.51885240863
2941 1 15.5643254967 18.2736747712 1.60508828427
2943 1 15.427357948 15.7575209712 2.83196658832
3501 1 18.4592505553 18.0287984716 1.52605946521
3506 1 16.8345732075 16.3284320788 0.919098909937
3507 1 16.9457705549 17.6027915038 3.57165884729
4063 1 22.4172046978 16.0961622212 1.52413754205
4061 1 21.1582498955 18.1947046406 1.56737555277
4066 1 20.1479874738 15.9100533559 2.05007196734
4067 1 19.4858087028 17.6006457239 3.66503285789
4627 1 21.7222033853 16.6715636845 3.72472411202
5187 2 26.0186057692 15.7315591883 1.56467359542
4696 2 23.3085683546 19.2700152327 0.549250349558
4628 1 23.1710271315 18.2536025813 3.00779992934
4621 1 24.4572906291 17.3562898256 1.07444336433
5188 1 25.930127183 17.9830499216 2.93940837296
5256 1 25.9117510069 19.3754909029 0.407663154195
4623 1 24.3505752007 16.165054271 3.46466128893
5183 1 27.2756461708 16.0664870669 3.54869222765
5181 1 27.2786555508 17.4347715924 0.928228192161
5741 1 30.0047423622 17.3706877085 0.961231998464
5743 1 30.0621654148 16.1080354938 3.50944230116
5748 1 28.6799229145 17.9913809171 2.88542395989
5816 1 28.6322821903 19.3179086013 0.291908305434
6301 1 32.8356318232 17.3841316386 0.975064003997
6303 1 32.8428275983 16.1083336391 3.52690574715
6308 1 31.4366449159 18.0154012896 2.87482408811
6376 1 31.412367779 19.2974908835 0.314312420913
6936 1 34.1779722745 19.3189786054 0.304698614995
6868 1 34.2039510381 18.0332429683 2.89094711471
6861 2 35.571175496 17.4238122992 0.96797381978
7428 1 36.9560591722 18.0346947171 2.87254892163
7496 1 36.9328002073 19.2896904769 0.252508697721
7421 1 38.3713970386 17.4406886314 0.998449533187
7423 1 38.3893761706 16.2013321576 3.54491875748
7981 1 41.1676856381 17.4771645982 1.19631215363
7988 1 39.7432915707 18.2096825412 2.97378344381
8056 1 39.7822043634 19.3020990638 0.32886235207
7983 2 41.024084824 16.4339749534 3.66449685051
147 1 44.4503888023 15.9421700436 3.0375371915
8610 1 43.9278134675 17.4476608955 1.08109545597
8616 1 42.5312537357 19.3399344755 0.389904545836
8544 1 43.0437552226 18.1316373336 3.20337411313
213 2 0.656974414989 20.2906678397 1.86990721984
220 1 1.49530336897 22.1945667728 3.23523960351
216 2 2.95985299302 22.6372163124 1.16754647782
772 1 4.20544395984 20.8771098888 0.265544333329
773 1 4.15646998326 21.6589926226 2.80494965017
1332 1 7.06869026941 20.8143377131 0.282592178661
1333 1 7.10115314772 22.1530808058 2.8094690383
1336 1 5.61296890868 22.7415426314 0.967641462592
1339 1 5.8732426847 20.176414559 2.21072194106
1892 1 9.9353434622 20.8080290155 0.287491608496
1893 1 9.9814318005 22.0900704776 2.85373808066
1896 1 8.53280458258 22.7033379244 0.93010963777
1899 1 8.53035533021 20.2376466833 2.21877579235
2459 1 11.3325084452 20.1728700315 2.20050056572
2456 1 11.3479866889 22.6978137859 0.902930158982
2452 1 12.7717027472 20.8000168575 0.283310252028
2453 2 12.7466718825 22.0198449888 2.7385086939
3016 1 14.1593187722 22.7068222309 0.892330128163
3019 1 14.1755973633 20.1633542602 2.19862300255
3012 1 15.6202599227 20.8664963873 0.2979990033
3013 1 15.5442875152 22.0620118484 2.79822945981
3573 1 18.2999691516 22.0808183005 2.77593217547
3576 1 16.9832866709 22.8957888626 0.878459914483
3579 1 17.0329269402 20.1457630329 2.14478773587
3572 1 18.5192834962 21.0193284908 0.265011230814
4697 1 22.328282364 20.575760084 2.10102349886
4139 1 19.7079375373 20.0034377586 2.19514685899
4691 1 22.5603539831 22.8463080343 1.12449084737
4133 1 21.7416647503 22.3098645701 3.63011350437
4136 2 20.5082047311 22.0149421585 1.56964144938
4692 1 24.6759595036 19.9276862903 2.34291114589
5257 2 26.0127520366 21.7909172551 1.63615226667
4693 1 24.2269166998 22.2106655487 3.0031190198
5252 1 27.3157847279 19.8948008398 2.29131436071
5253 1 27.2626851417 22.4848248459 3.51533549329
5812 1 30.0372444457 19.9277154023 2.23161975634
5813 1 30.0280043583 22.5197535592 3.48224099424
5817 1 28.6636380752 21.8249953548 1.58993741996
6372 1 32.821428864 19.9372036209 2.22399512558
6373 1 32.8167217552 22.5063824119 3.48545247621
6377 1 31.4158488275 21.8640847064 1.57971800862
6937 1 34.2120941267 21.8582461029 1.56993904826
6932 1 35.5866044897 19.9250158771 2.19863349132
6933 1 35.59019246 22.5182741891 3.49568151301
7497 1 36.9635836437 21.8590544036 1.5593548117
8052 1 41.2395150746 20.0697802661 2.11951118314
7492 1 38.3007889603 19.939062143 2.17241317865
7493 1 38.3301279963 22.5090886664 3.51315850449
8053 1 41.0829173545 22.3107944806 3.52984314439
8057 1 39.7256879971 21.838277704 1.58075174381
8548 1 44.1885470827 19.8004907537 1.86148151603
8617 1 42.7121834167 21.9281533206 1.40440352632
8604 1 44.8891078704 22.1325065903 2.48667094068
280 1 1.05451739873 23.8192346783 1.05359124309
211 1 1.09020230737 26.0321962618 2.14425310889
849 1 3.25380437981 26.8151043907 2.35237028305
777 1 2.96524822976 24.1536165744 3.09547661781
219 1 2.86411903934 25.2686639044 0.302974809465
8613 1 0.104909957156 24.3404860441 3.44030489525
771 2 4.7517250642 25.0021875605 1.5607266464
1331 1 7.18641981313 24.6258432176 1.63028758638
1409 1 6.01378343871 26.6787376284 2.32971644984
842 1 4.56740612861 27.2879549078 0.376360743035
1402 1 7.2882333119 27.1985586316 0.268938697808
1337 1 5.60732524234 24.0138814464 3.57826812247
1891 1 9.98919511175 24.5946264895 1.57839104358
1969 1 8.62823255748 26.5431722015 2.20035364083
1897 1 8.6054027155 23.9439811381 3.50951721337
1962 1 10.0007777929 27.1522454283 0.276860145676
2529 1 11.3540353164 26.5111669918 2.22863408153
2457 1 11.3656138031 23.9670333475 3.52383564216
2451 1 12.7285613897 24.583009386 1.5836897509
3089 1 14.0587381966 26.5158260554 2.23823224042
3017 1 14.0911961161 23.9460512281 3.52355877386
2522 1 12.7329592905 27.1528350907 0.280198472762
3011 1 15.362341822 24.6279684265 1.58859202618
3571 2 18.6028829998 24.4227431025 2.3765546081
3649 1 16.9875720542 26.4443580345 2.1481714305
3577 1 16.7551259831 23.9816553127 3.50786254204
3082 1 15.4211474245 27.1608609223 0.327176367738
3642 1 18.2080583058 27.3761367152 0.181481992924
4131 1 20.9131746372 24.3695960262 1.84593422241
4209 1 19.6317200698 26.7055907198 2.12065927663
4202 1 22.5185523587 26.6899643397 1.57405945993
4208 2 20.7865828183 27.3677745319 0.307232309474
4134 2 21.0454737859 25.9367523087 3.62651240668
4194 1 19.303440543 25.2829836179 0.101134243107
4698 1 22.997664525 24.7008438894 3.06897484086
5329 2 24.5221198806 25.790560682 1.89118664449
5326 1 25.7242848488 25.1925170311 0.120463352114
4767 1 24.7453234695 27.2861174353 0.128079705775
5258 1 25.6655771013 24.2491503939 3.02978389404
5251 1 27.2986696304 23.6967932539 0.969582146118
5811 1 30.0065256352 23.7849110815 0.929495079583
5322 1 26.996949594 26.32658901 2.13320061025
5818 1 28.5925181357 24.4452397778 2.8243145373
5882 1 29.9940832201 26.3387682718 2.19624705663
5886 1 28.540439179 25.6943455056 0.333892956839
6371 1 32.8176169154 23.7838840621 0.933158415002
6378 1 31.4166064087 24.4328695965 2.84024011234
6442 1 32.8261453664 26.3411631165 2.2063967296
6446 1 31.4191134398 25.6998675397 0.299677087754
7006 1 34.2255798666 25.6988653174 0.287182274074
6938 1 34.2114671465 24.4270782221 2.850485232
6931 1 35.6099365802 23.7880097575 0.934092965778
7002 1 35.6277056821 26.3250756167 2.20374920089
7498 1 36.9918856954 24.4212446215 2.85390726649
7566 1 37.0314165186 25.6986510501 0.289613050107
8051 1 41.0862577679 23.7351310532 1.01036196155
7491 1 38.3947561938 23.7797721986 0.96238495166
7562 1 38.4544960594 26.2886044936 2.21712020966
8058 1 39.8081827193 24.3136090705 2.91937972289
8122 1 41.1943000456 26.1713724354 2.35345358515
8126 1 39.7873700383 25.686487954 0.297113578917
8611 2 44.5339057585 23.9097072507 1.23141364936
8618 1 42.8341895194 23.8281624062 3.05561722325
8682 1 43.9588637057 26.0774990847 2.17226490091
8686 2 42.2210164746 25.8111728017 0.440814716345
282 1 1.88574701334 27.5592196435 0.426766130574
286 2 1.15675065399 29.849839733 1.50215164763
846 1 3.28490012107 29.2875311318 1.00210917205
283 1 1.30102443357 28.3331011917 3.16953458849
847 1 3.07878495544 30.4448778342 3.33718406508
287 1 0.314549702298 30.6546444387 3.50721732003
843 1 4.75656089297 28.6614748416 2.81445971006
1403 2 7.40438764648 28.6244471555 2.79227408237
1406 1 6.02444844498 29.1642068523 0.879828927412
1401 1 7.42292559898 31.1184772088 1.55849283282
1407 1 6.12771012386 30.4484573995 3.49994343167
841 1 4.80043312824 31.1013356998 1.62684378788
1961 1 10.0656443307 31.0434502981 1.5126404828
1963 1 10.0117303181 28.4672209051 2.85326519227
1966 1 8.69701616672 29.1295648963 0.87849776245
1967 1 8.74653496752 30.4528299925 3.51240633416
2526 1 11.3824786862 29.093094852 0.91815934653
2527 1 11.374119389 30.3792595959 3.4839398534
2521 1 12.7372736538 31.0532088559 1.57463335818
2523 1 12.7163930625 28.4518388196 2.87054501933
3086 1 14.0809192171 29.0905878062 0.941028693883
3087 1 14.1143898752 30.3585688665 3.49913696991
3081 1 15.4524643681 31.0150832251 1.56212270956
3083 1 15.4761979035 28.3684114615 2.85574706737
3643 1 18.2548602163 28.4668151191 2.81161318165
3646 1 16.7624572801 29.0654308232 0.970162489366
3647 1 16.8247775395 30.3089082414 3.46174740153
3641 1 18.0952231933 30.9598525841 1.55529445849
4203 1 21.4765189915 28.4166576844 2.8485435136
4206 1 19.5965623371 29.2038714676 0.894781238106
4836 2 21.6326357028 30.3198206188 1.244452208
4207 1 19.8500333985 30.2668080081 3.19978058228
4768 1 22.9634595438 30.6612068266 3.0614866587
4761 1 23.5934509101 29.239408688 0.981954598219
5327 2 26.0391268795 28.5554538293 1.48048321568
4763 1 24.2826654665 27.9828923202 2.98360659083
5328 1 25.2939050896 30.5784151864 1.97184677897
5323 1 27.0874044492 29.001774652 3.50307937106
5321 1 27.3791943769 30.2529029976 0.892305963614
5881 1 30.0543553232 30.1538562389 0.955785963609
5883 1 30.0275103505 28.9008641972 3.48483167938
5887 1 28.5884582934 28.2422628506 1.63399806015
5888 1 28.7077359424 30.8238090496 2.88675044779
6441 1 32.8693491429 30.160576657 0.929486482882
6443 1 32.8523124404 28.8966886183 3.4810819965
6447 1 31.4397277762 28.2494553107 1.57724524694
6448 1 31.4760058076 30.8131806345 2.85348399904
7007 1 34.247034235 28.2440675779 1.55589131337
7008 1 34.2780926701 30.8028236271 2.82744263759
7001 1 35.6516968849 30.1538817588 0.893791634611
7003 1 35.6502892064 28.8669339481 3.4663506758
7567 1 37.044872178 28.2075080774 1.53911977785
7568 1 37.0480817745 30.7751559494 2.81084667995
7561 1 38.4223660522 30.1200921618 0.871815259391
7563 1 38.4073497283 28.8217990359 3.47622771547
8121 1 41.2602321875 30.1386518548 0.92179463589
8123 1 41.1711770687 28.7823273576 3.49637848012
8127 1 39.8129623177 28.2185515971 1.56134401827
8128 1 39.7649436438 30.7017416615 2.81010970189
289 1 45.3308196391 27.8820725541 1.319373262
8681 1 44.0952205825 29.9519152881 1.24418877533
8687 1 42.5244605723 28.10349502 1.58810002134
8688 1 42.5009223096 30.6691461802 2.86471690793
8683 1 43.999375687 28.6767286535 3.42668232668
281 1 1.22428150899 32.2180268084 2.00856357011
353 1 1.85869413824 34.500777784 2.68073195244
919 1 3.43009700338 32.9614537959 2.11443454353
344 2 3.2969273838 31.6596851762 0.0482724848075
918 1 1.69264794442 33.3573622907 0.00124965336406
912 1 4.56036293825 33.6967510482 0.126139130692
913 1 4.55902028969 34.9982534899 2.79946571594
1472 1 7.46816640954 33.656461405 0.334952210523
1473 1 7.41974709202 34.954993106 2.86985290484
1479 1 6.07649373925 33.0778289521 2.16564142633
2032 1 10.0730479673 33.6339415469 0.235110955594
2033 2 10.1531574543 35.0796543431 2.84540385194
2039 1 8.82290347912 33.0242112001 2.25676545284
2599 1 11.3606517805 32.9883390224 2.20199942017
2592 1 12.7840226531 33.6345383353 0.282945575221
2593 1 12.7345300787 34.8842762725 2.74875959491
3159 1 14.1393547334 32.975799782 2.2103407746
3152 1 15.5109549815 33.5703554517 0.267540657804
3153 1 15.6267521104 34.8553646308 2.76812474624
3712 1 18.2999546995 33.4636867682 0.346781110654
3719 1 16.8567408872 32.9015823053 2.21422522385
3713 1 18.2654618466 34.7497957136 2.85088271954
4279 2 19.4224424918 32.7766517806 2.28983292599
4839 2 22.4489723312 33.1051203053 2.35440565064
4272 1 21.1969954294 32.6722252521 0.243123820131
4837 1 20.3331950772 34.7730524731 1.58467158948
4824 1 23.4732379856 31.9854406702 0.588959325114
4838 1 23.0084380916 34.8514611605 1.20231057865
4832 1 24.6651240779 32.8834508909 2.36822277398
5396 1 25.9059834875 32.1617963538 0.357106977487
5397 1 25.8838264129 34.7530004041 1.67023755314
5392 1 27.1656564119 32.615441428 2.36366463726
5952 1 30.1056885369 32.7411258573 2.24939862861
5956 1 28.6679663247 32.1089085188 0.423721923917
5957 1 28.7107796287 34.6478436528 1.66458331113
5953 1 30.1483207588 35.3340000555 3.48769307213
5393 1 27.3340545535 35.3476101145 3.48786627014
6512 1 32.9032413106 32.7354579705 2.20524651072
6513 1 32.9323470089 35.3103778563 3.45292320978
6516 1 31.5101523104 32.0814878551 0.340739231338
6517 1 31.5225586247 34.6702659832 1.57635624511
7076 1 34.2572844272 32.0952090423 0.256770175391
7077 1 34.282614947 34.6516408761 1.51502340875
7072 1 35.6756407416 32.7228100279 2.16883709124
7073 1 35.7003003436 35.2976349691 3.44125045207
7636 1 37.0562128332 32.0718095978 0.245094372136
7637 1 37.0809846477 34.6438850469 1.53183922679
7632 1 38.4258234999 32.6785649747 2.15468744904
8192 2 41.0977638763 32.491419716 2.1311810014
8197 1 39.7875119188 34.6059950901 1.58574416759
8196 1 39.8473069129 32.0396772853 0.249381142292
8193 2 41.1721202109 35.2769166652 3.46439359099
7633 1 38.4597031406 35.3032322725 3.45376935533
8753 1 45.4414813639 34.1653228446 1.55854586719
358 1 45.452203993 31.7064835885 0.195707595102
8752 2 44.3837389843 32.0829828646 2.40815976126
8757 2 43.2474526708 34.6631981692 0.795743329376
8756 1 42.7833397453 32.1809829917 0.38546510253
8761 1 43.5524787147 35.3471120493 3.11280648033
916 1 3.15435294048 35.4943202029 0.879065787999
356 1 0.172652965459 36.0684968939 3.18124648654
351 1 0.827013875931 38.5189652394 2.11411164706
917 1 2.76364746387 36.9664556277 3.05577851739
988 1 2.89686288515 38.083044275 0.341387895291
414 2 1.11953222415 36.4481529397 1.24183549937
911 1 4.67534475886 37.4060393718 1.67676245594
1471 1 7.34579743758 37.4758746335 1.60364644525
1476 1 5.98452428705 35.5151359646 0.925999437503
1477 1 5.97450021833 36.8337537192 3.56811930463
2031 1 10.1586703006 37.5392028781 1.57264561565
2036 1 8.76440370992 35.6042208115 0.93430885389
2037 1 8.78327564521 36.8750314873 3.50646465153
2596 1 11.4416296446 35.5856529162 0.864418699256
2597 1 11.6003619542 36.8953203022 3.49902539124
2591 1 12.8064949639 37.5458949371 1.44175287542
3156 1 14.2231853575 35.5720629584 0.882534601614
3157 1 14.1544079712 36.8029670448 3.15597541925
3151 1 15.7628225447 37.4509331942 1.44642759816
3711 1 18.6117637265 36.7626970635 1.54073418139
3716 1 16.943568828 35.4039599338 0.823600968752
3717 1 17.1369020426 36.8492878932 3.38774880302
3789 1 17.2344231797 39.2378613078 2.15657397587
4276 1 21.1990981891 37.0087292081 1.00964845906
4277 1 20.1975758197 36.3738152597 3.51687001864
4349 2 19.4750384393 38.4491218073 2.79688575051
4348 1 19.4383834844 38.4452263031 0.284283332643
4833 1 24.4383026212 35.4096111435 3.62216005723
4902 1 22.9467201149 37.1954940818 2.71826379301
4831 1 24.5768898762 36.6105650734 0.933684323163
5398 1 25.9386127927 37.248902208 2.77576358501
5466 1 25.9909776574 38.426004489 0.236993951113
4907 1 24.465743773 39.1737631952 2.12456126777
4906 1 23.0925818389 38.3836354327 0.317933510614
5391 1 27.387786707 36.546311851 0.861981104316
5462 1 27.3729440205 39.1286561935 2.17964189052
5951 1 30.0785502088 36.5438273208 0.859007090674
5958 1 28.7408704493 37.2125203521 2.79075809156
6022 1 30.1245236928 39.1221285507 2.16539507341
6026 1 28.715017728 38.4727934554 0.217660959389
6511 1 32.8841536778 36.5733025157 0.870056358054
6518 1 31.5272588776 37.212293857 2.77581051854
6582 1 32.9024372151 39.1341884274 2.175867937
6586 1 31.4807854702 38.4799308524 0.2406907457
7146 1 34.3055668619 38.4923918481 0.270042331744
7078 1 34.3141975816 37.2222689729 2.79403761684
7071 1 35.7019284916 36.5719414326 0.891504812398
7142 1 35.7160844039 39.1453132581 2.18207180288
7638 1 37.0960203214 37.2263740703 2.81985749754
7706 1 37.1314687227 38.4902349924 0.27729918406
7631 1 38.5190800464 36.5682790548 0.938906616543
7702 1 38.5059973195 39.1463235242 2.20606138976
8191 1 41.4204157774 36.4151217266 1.08535311629
8198 1 39.8789833592 37.2337100837 2.84464799612
8266 1 39.9373587394 38.4696602766 0.331712361701
8262 1 41.2387595788 39.2042805056 2.23720840171
8751 1 44.2859123849 36.7794100303 1.22416060434
8758 1 42.483332024 37.4516373602 3.04616945662
8826 1 42.5743766001 38.4194813066 0.343829029706
8829 1 44.0445689263 39.0157392503 2.03408335256
989 1 3.17632243342 39.4018560966 2.32533696116
423 1 1.6545808989 41.1612374777 2.81990581367
986 1 3.14835657354 41.8990134198 1.02029232335
422 1 1.48272027803 40.245371395 0.320318697682
987 1 3.10629179326 43.0992083099 3.24202199839
982 1 4.51163409016 39.9879125902 0.393482735241
983 1 4.59932490455 41.2554078279 2.83835660759
1542 1 7.28605384374 39.9987127475 0.316795104177
1543 1 7.35203784763 41.2771780285 2.80480546586
1546 1 5.92999821833 41.9063875943 0.92129360802
1549 1 5.93750728205 39.3565549855 2.31124847764
1547 1 6.01282759633 43.2129204823 3.40622516392
2102 2 9.94467334583 39.9682845616 0.143996930888
2103 2 9.95833658145 41.4051896536 2.93278123647
2106 1 8.71009938102 41.9228056141 0.917931409074