ITEM: TIMESTEP
4000
ITEM: NUMBER OF ATOMS
8960
ITEM: BOX BOUNDS pp pp pp
0.0 45.68
0.0 51.0717926061
0.0 44.6878185303
ITEM: ATOMS id type x y z
569 1 3.33473944647 1.07628906183 2.40216326003
8465 2 1.26292432383 0.539504238004 2.08940221216
2 1 1.79031447955 2.42325538526 0.859254094451
3 1 1.44746719934 2.84634791053 3.54442263207
8401 2 0.189580812768 3.61312225889 1.90382818048
562 1 4.48974900631 1.83067502353 0.37362933438
563 1 4.41123959672 3.13255180138 2.84873233615
1122 1 7.25836258769 1.80719469054 0.38564332225
1123 1 7.24108528235 3.10805044562 2.92064947686
1126 1 5.91204053846 3.75760048876 0.978679993327
1129 1 5.85056530503 1.17109691631 2.2863595787
1682 1 10.0656996037 1.81528282779 0.406399535695
1683 1 10.0416181892 3.1291421695 2.9343040016
1686 1 8.65637593551 3.74218649334 1.01401146502
1689 1 8.63166192994 1.19363838598 2.30871543609
2249 1 11.3661350508 1.18578167815 2.34819635138
2246 1 11.4413850675 3.76732704713 1.02708473349
2242 1 12.7325852945 1.73394834163 0.385119020409
2243 1 12.7740089377 3.10919392126 3.02531650426
2809 1 14.1883374743 1.19181432067 2.35318245247
2806 2 13.9501868917 3.40956305091 1.1727810898
2802 1 15.6234788544 1.75566581725 0.516078956205
2803 1 15.7276761657 3.07641267992 2.80397452475
3362 1 18.4689139709 1.77099415109 0.447772653304
3363 1 18.3566954345 2.97163127614 2.80107716942
3369 1 17.0528848498 1.00578212112 2.34939413011
3929 1 19.7705955347 1.03056436337 2.42775730811
3922 1 21.1822060205 1.7020715821 0.566392033581
3923 2 22.0834205282 3.6907446068 1.98112969173
4489 1 22.101584841 1.45635264511 2.83369504461
3926 1 19.796046789 3.76939405907 0.903299684157
4487 1 23.5924435339 2.21311448159 0.926694574547
4482 1 24.3939075116 0.628077570027 2.40321440995
5047 1 25.8694624565 2.61339282992 1.606678268
4483 1 24.2433768067 3.28863229325 3.28864968227
5046 1 25.6202627075 0.309837679151 0.270655429795
5042 1 27.201667509 0.718730960327 2.20681846594
5043 1 27.2117793236 3.24439186414 3.52299170714
5602 1 30.0607151528 0.742135856433 2.16599873725
5603 1 30.0479801478 3.26023810043 3.45236391489
5607 1 28.6107867181 2.61528270996 1.57942672125
5606 1 28.614448423 0.0841600165236 0.273432953704
6162 1 32.8486176752 0.735007238549 2.1793220935
6163 1 32.8612104168 3.25170442276 3.43642933591
6167 1 31.4353366722 2.65749169713 1.53344279812
6166 1 31.446175313 0.0959097043528 0.256177371333
6726 1 34.2558617021 0.092012311051 0.284592943051
6727 1 34.2921431935 2.59783225001 1.55745465658
6722 1 35.6900538387 0.725536452027 2.21666857135
6723 1 35.7225787973 3.2516817107 3.44098268072
7287 1 37.1506159093 2.64115000141 1.54535792553
7286 1 37.0409236291 0.0912620929735 0.338319794276
7282 1 38.545496155 0.759185062443 2.18323272773
7283 1 38.6375760263 3.28251423983 3.41162033518
7842 1 41.4179886362 0.699881195265 2.17870689591
7843 1 41.3783430422 3.41624463247 3.34164700839
7847 1 40.0717294722 2.63920949051 1.40818327253
7846 1 39.8959329914 0.149089878735 0.278969501365
8407 1 42.4331293567 2.91590901764 0.657303399409
8402 2 43.7799011101 1.31338896191 1.71275764058
8 1 45.4545184484 0.555988754415 0.0812967549435
566 2 3.39933685578 3.96802693692 0.697582869446
6 1 1.63340163657 5.22156682788 1.22312194809
639 1 3.03881933806 7.50597898371 2.25265711237
79 2 0.734051412187 7.03058193661 2.0797679007
1 1 0.151718220811 5.23250150342 3.59399549248
567 1 3.07678218857 5.02073719267 3.55738884036
561 1 4.49947893338 5.72063971949 1.60542333309
1121 1 7.28467813417 5.68327714692 1.62940208768
1199 1 5.91938496603 7.57805100003 2.28371185654
1127 1 5.88207290055 5.05850697997 3.53108569176
1681 1 10.0489446905 5.69679149225 1.64349083305
1759 1 8.65710143762 7.62128911158 2.27626416004
1687 1 8.64895554752 5.0508030342 3.55642130641
2319 1 11.4671366369 7.58667324484 2.28239141851
2247 1 11.4423342206 5.08824713108 3.54622842479
2241 1 12.9287231722 5.68226989905 1.5941597153
2879 1 14.2754394186 7.65540497502 2.26353941271
2807 1 14.302192055 5.00939994476 3.4814211195
3366 1 17.3756344833 4.07968503908 0.685894637752
2801 2 15.6804120661 5.94334504909 1.66857399799
3361 2 18.887054087 6.101272652 1.64472686986
3439 1 17.2232138203 7.69912105961 2.2747523672
3367 1 17.1846538822 5.04248157489 3.33919968481
3921 1 21.5900423327 5.96782080429 1.2311445172
3927 1 20.0585269703 4.80307125056 3.18363249025
3995 1 22.5279517183 5.31765314311 3.48196743907
4481 1 24.2504365061 4.65366576476 1.10072487029
4552 1 24.3208342311 6.77569366157 2.37769996448
5048 1 25.8477700461 5.04714965216 2.84611332926
5116 1 25.8282202308 6.47553413534 0.32299399002
4556 2 23.3492831379 6.64602524182 0.0386555677789
5041 1 27.2023886933 4.5321241679 0.926512424306
5112 1 27.1798138225 6.96606999295 2.25707263866
5601 2 29.8796620629 4.52252822047 0.896704456125
5608 1 28.6189639685 5.12591423722 2.85747241309
5672 1 30.0743272978 6.97598537095 2.21057788917
5676 1 28.6073061655 6.43361414756 0.28899732414
6161 2 32.9900048076 4.49424650151 0.904441480416
6168 1 31.461531514 5.11204155208 2.77545467921
6232 1 32.8446366001 7.03901157486 2.18521148247
6236 1 31.4554637478 6.38729065197 0.288979405047
6796 1 34.2444257599 6.39374104154 0.291371675699
6728 1 34.2852365789 5.14650711835 2.82178725622
6721 1 35.702884394 4.5013785529 0.911407981214
6792 1 35.6692434709 7.04850635051 2.18531846097
7288 1 37.1431569439 5.16464876028 2.78912047362
7356 1 37.0994078757 6.40371867711 0.302819385126
7281 1 38.5984509287 4.55751438531 0.885257461321
7352 1 38.5085422251 7.1482857233 2.18023980306
7848 1 39.9804811848 5.29005061821 2.81048857418
7912 1 41.3397130093 7.24592252034 2.06708617782
7916 1 39.8435236177 6.64052686044 0.220722984672
7841 1 41.349571702 4.94168794723 0.942994150914
8408 1 43.0772051335 5.91473458038 2.66854034341
8472 1 43.4250207205 5.7104423022 0.334852954635
72 1 1.6826920942 8.09906094298 0.233082716491
73 1 1.57443314443 9.41455293997 2.84399434192
636 1 3.09504538541 9.92684989404 1.00893733441
637 1 3.19474081922 11.3786700599 3.61625133928
134 1 0.393792306057 10.3476726512 0.385403390876
71 2 1.91617554833 11.7046017024 1.86643564295
632 1 4.51913585574 8.14910615532 0.352724857119
633 1 4.49886456664 9.42183171189 2.91865538647
1192 1 7.27686455918 8.28487410462 0.339923901686
1193 1 7.22839231073 9.53707850099 2.90344334141
1196 1 5.82122216761 10.1527259867 0.982544254816
1197 1 5.79053226697 11.4304011437 3.56450126934
1752 1 10.0561188684 8.27907670251 0.370754068513
1753 1 10.0783969919 9.51256640967 2.91195944541
1756 1 8.63477087867 10.1754147117 1.03628110284
1757 1 8.66456091207 11.4137551383 3.56674280597
2317 1 11.4842264956 11.4175700901 3.57524910667
2316 1 11.4868887526 10.1649521885 1.05140894994
2312 1 12.8512178808 8.27953994734 0.358179927814
2313 1 12.8754420297 9.51284863385 2.94076547706
2876 1 14.2802097308 10.1617328482 1.02888435085
2877 1 14.2965822584 11.4235383534 3.58805697196
2872 1 15.7515753264 8.26457819439 0.382098796635
2873 1 15.7225004026 9.54391095315 2.92612914793
3432 1 18.5156564393 8.35195440704 0.352351153609
3433 1 18.6017358361 9.62237054467 2.91886563625
3436 1 17.1083245784 10.2449368372 1.05761960614
3437 1 17.1249206133 11.4713342603 3.57438788568
3999 1 20.3116869156 7.87190282891 2.19513124599
3993 1 21.619357007 9.98351944582 2.56082390484
3996 1 19.8388740754 10.2675113227 1.0012641162
3997 1 20.0107465258 11.4740676029 3.69187128162
4557 1 22.9604216584 8.34705624719 1.58568284816
4551 1 23.5123696018 10.5041853453 0.764021711425
5117 1 25.6366851148 8.80716983453 1.5953697603
4554 1 24.2866534874 9.67711043667 3.40752282526
5111 2 27.191034523 10.3302025743 1.06355228213
5113 1 27.1930030624 9.67696809262 3.40919746442
5671 1 29.9539125492 10.8452931387 0.998836761306
5673 1 30.0513622777 9.58226987173 3.47039884902
5677 1 28.6817652164 8.73617799018 1.57833944758
5678 2 28.8232402486 11.6604703697 3.13882522237
6231 1 32.8833476439 10.8531260708 0.921678560708
6233 1 32.8483889846 9.57756741822 3.47171794007
6237 1 31.4359292393 8.95405056902 1.56135625637
6238 1 31.4504184022 11.4935818491 2.83567003251
6798 1 34.2095215005 11.518980985 2.88480057989
6797 1 34.2524034051 8.95228328317 1.56289239159
6791 2 35.6038532034 10.9494686364 1.11569065145
6793 1 35.6439201051 9.60276952913 3.48065620122
7357 1 36.9973083781 8.98333900289 1.56085895721
7358 1 37.0295251876 11.5429703972 2.87345077711
7351 1 38.2700282758 10.9027091051 0.884514407184
7353 1 38.4731014591 9.6139516443 3.42880422902
7911 1 41.2052058627 11.1807341173 0.679929549311
7917 1 39.8129995404 9.11550285576 1.47871453412
7918 1 39.6863281027 11.582168874 2.72498290358
7913 1 41.3182198059 9.83280294106 3.4252975758
8404 1 44.8166454539 7.90677876923 3.64613867422
76 1 44.509890869 7.9249123217 1.06290204876
8477 2 42.1931846164 9.281076715 1.40091803833
8473 2 44.9947013727 9.80411430055 2.22236278238
7914 2 43.1453807551 11.6764290205 3.61690037036
8478 1 43.7396672858 10.339637632 0.0363783608578
709 1 3.18393897597 13.9599598138 2.22880539287
706 1 1.26278394646 13.5936874428 0.80964458168
769 2 0.355829624355 15.5082632756 0.30805670361
149 1 1.35674426819 13.1960325788 3.64277500153
631 1 4.44828493997 12.0356886479 1.57591520278
1191 1 7.21895665124 12.0677883644 1.66461952992
1262 1 7.20387997942 14.7029356833 0.462657792809
1269 1 5.84962929802 13.9573578883 2.35047368083
702 1 4.6835844237 14.9730981979 0.469179687397
1263 1 7.32544045871 15.6893055172 3.07404702302
1751 1 10.0734442889 12.0688217966 1.6758691297
1822 1 10.0314881121 14.6637683012 0.409766228259
1829 1 8.68279370098 13.9424551662 2.29852235832
2389 1 11.465976896 13.9986384348 2.30975203132
2311 1 12.8822834775 12.0854581914 1.68270425991
2382 1 12.8582906198 14.6660169407 0.405783380288
2949 1 14.2752453065 14.0098952596 2.31572019399
2871 1 15.6624910345 12.0842349621 1.68245052412
2942 1 15.6384174539 14.6781782167 0.388604253418
3431 1 18.6125262097 12.2326390222 1.75850851729
3502 1 18.5082786226 14.607539016 0.45376506694
3509 2 16.973430556 13.9988589902 2.31387339609
3991 1 21.452242053 12.1083114722 1.51183577304
4069 1 20.4275257597 14.0754384901 2.33671388558
5118 2 23.6145138829 11.8234024139 2.77754119426
4622 1 24.1208368737 14.0564987296 2.66633010018
5182 2 25.8487998128 13.4233155651 1.25395659309
5742 1 30.1045136613 13.4205282933 2.19723456238
5746 2 28.8340617921 12.8921298288 0.126817991209
5747 1 28.6857935707 15.2663551018 1.58628215254
6302 1 32.8357838113 13.4167446924 2.18428469646
6306 1 31.4449398596 12.7288560891 0.289628322074
6307 1 31.46382406 15.3448412132 1.59134134204
6867 1 34.2282626259 15.3407031313 1.54809746927
6866 1 34.2294504776 12.7880323393 0.281992698003
6862 1 35.6007309057 13.430227009 2.20155566953
7426 1 36.9330759033 12.8284737789 0.26607524716
7427 1 36.9255826785 15.3776851228 1.52618451464
7422 1 38.3212639851 13.5011917024 2.15574969092
7982 2 41.0054405459 13.5229705734 2.04032010739
7986 1 39.5483684692 12.8651725476 0.235954925718
7987 1 39.7264345769 15.4069339906 1.44496092579
8474 1 45.2027728422 12.0485861032 1.91868206586
77 1 43.1100662699 12.9338693213 1.24558374149
141 1 44.9026173738 14.5187530102 1.90823483993
8547 1 42.5374425486 15.3697413926 1.49019236337
143 1 1.77232788091 15.9356374106 2.46596599783
8543 1 1.18717214395 17.5089839421 0.672331103468
213 1 1.95081890125 18.9785531849 2.46448644141
703 1 3.5200665239 17.0819723031 1.14290739493
701 2 4.17043666289 19.1471419345 2.13177628187
710 1 4.34442456295 15.7738511867 3.12023318094
1266 1 5.9258791286 16.8383669032 1.4690716899
1261 2 7.43680461157 18.7071605011 1.53095097678
1338 1 5.61278385026 19.0491601821 0.0225678144882
1821 1 10.0499914047 18.4935982972 1.70367001341
1823 1 10.0466220702 15.9068534226 2.96042115896
1826 1 8.61286185272 16.5665164593 1.09603328846
1827 1 8.61275541195 17.7856762425 3.58053778372
2386 1 11.4316059021 16.5687716401 1.04113200901
2387 1 11.4607609023 17.8385171174 3.57276199781
2381 1 12.8272421905 18.4907078113 1.65176548385
2383 1 12.8716222346 15.9245012402 2.93669911183
2946 1 14.2663502555 16.5924005359 1.02291429049
2947 1 14.2847095612 17.8573486361 3.53758115481
2941 1 15.7130376916 18.5140429663 1.60420158178
2943 1 15.6703638034 15.9409150664 2.93366968519
3501 1 18.4328273295 18.4909619598 1.54613903007
3503 1 18.4589032302 15.8336708496 2.94065290878
3506 1 17.0889208599 16.5670632603 0.998773725957
3507 1 17.1006742097 17.8212498527 3.52579521195
4063 1 22.7157588053 15.8564806856 1.60798591665
4627 2 20.9315908081 16.2460106989 2.98956346497
4061 1 21.3192901668 18.2213116565 1.67974870434
4066 1 19.8345642038 16.4524498695 0.990618633479
4067 1 19.6574365148 17.9203881602 3.57318966805
4628 1 22.8329173094 17.9487898749 3.51810531326
5187 1 25.3711481996 15.8049906018 1.33946238261
4621 1 24.0256095968 17.9679812749 1.2460517185
5188 1 25.9299554377 17.9280283443 2.86400509082
5256 2 26.0934224522 18.9940539202 0.323450664265
4623 1 24.5833930993 16.2049999717 3.54529617007
5181 1 27.3429344451 17.1509452152 0.988112622083
5183 1 27.2721866376 16.0086345184 3.45855338632
5741 1 30.0541559341 17.2340015343 0.959016705823
5743 1 30.0562357686 15.940553696 3.49947110299
5748 1 28.7102156704 17.8639834805 2.90045382531
5816 1 28.6620927148 19.1417418889 0.312060727945
6301 1 32.8632250707 17.2582825056 0.946080796533
6303 1 32.8840695851 15.9776153114 3.48152137776
6308 1 31.463202423 17.8770628862 2.86640935952
6376 1 31.4462393623 19.1617717242 0.315525177158
6936 1 34.1998778848 19.1962661127 0.274361336847
6868 1 34.2818948382 17.856618599 2.83718099107
6863 2 35.5991190934 15.7518196356 3.52141414655
6861 2 35.5763552359 17.3225730379 0.774193837466
7428 1 36.8989663225 17.8634560343 2.80551094922
7496 1 36.9690917064 19.2011982179 0.242145886039
7983 1 41.1055963907 16.0161868755 3.34004990254
7421 1 38.3061198899 17.282792117 0.890282054126
7423 1 38.3255417772 16.0017554455 3.41381973445
7981 1 41.2125854602 17.2719804264 0.905486779255
7988 1 39.7008839278 17.8916871072 2.76061114934
8056 1 39.7401068893 19.1686594714 0.265393377476
8610 1 44.1285574552 17.2097292239 0.933081222728
8544 1 42.7086213799 17.9660485752 2.92066974481
8616 1 42.6084371053 19.141952425 0.293439026538
147 2 43.868984163 16.0523970836 3.35035892153
218 1 45.5338484531 19.524862707 0.460807909167
779 1 45.4892877289 18.028159023 2.8598761532
776 2 1.97673412436 20.9552165943 0.913857157326
220 1 0.553509671123 20.8779830842 2.97887051893
772 1 4.34477972594 21.1923071706 0.444395009182
773 2 4.51948553071 22.3313687488 2.98238088875
1332 1 7.22323454821 21.0298374292 0.413193181236
1333 1 7.26705333026 22.3763260727 2.99625505908
1336 1 5.91025807951 23.0060475135 1.16453758553
1339 1 5.88123253486 20.5873586059 2.28234218
1892 1 10.0537749884 21.0757369891 0.391498387708
1893 2 9.90481400301 22.3051433716 2.9352158757
1896 1 8.59418655976 22.946160893 1.02909665986
1899 1 8.66181644452 20.4424276724 2.31577421492
2456 1 11.4113658284 22.9465669497 1.05048082004
2459 1 11.4258280547 20.4133998326 2.29473307533
2452 1 12.80416968 21.0304334633 0.372964873069
2453 2 12.9790327743 22.233504118 2.80117951314
3016 1 14.1837617284 22.9654997357 0.997153561001
3019 1 14.2635161957 20.3523130778 2.25438546278
3012 1 15.5128210894 21.0470912445 0.311450234857
3013 1 15.6008516906 22.3077900091 2.93178433472
3572 2 18.9265026266 20.8709237322 0.497584803222
3573 1 18.6289924582 22.3794902119 2.70659219272
3576 2 16.7725899683 22.9642263558 1.15850140384
3579 1 17.0870005238 20.4893483814 2.16239561093
4697 1 22.4717434406 20.354816578 1.93836273878
4139 1 19.9329968714 20.190346594 2.38677869235
4691 1 22.6843680815 22.8224403916 1.35310025822
4133 1 21.5218745271 22.0732787561 3.42094631686
4692 1 24.6552121933 19.8957285993 2.41469398218
5257 2 26.0862964026 21.5874672376 1.8907371615
4755 1 24.4232246781 20.8001211603 0.125076215127
4693 1 24.2826248283 22.3768205807 3.56159758936
4762 2 24.406454149 23.3119644325 0.0836273126627
5252 1 27.3660951985 19.7706072856 2.31212813261
5253 1 27.3003576152 22.4181545195 3.57027796778
5812 1 30.0377823128 19.8123202712 2.22744382755
5813 1 30.0473608537 22.3631833131 3.49179025619
5817 1 28.6093604486 21.7590272289 1.59369646076
6372 1 32.8659982016 19.7860735014 2.23204420187
6373 1 32.8418640267 22.3589977675 3.49650693997
6377 1 31.4421464657 21.7136266168 1.58234477889
6937 1 34.212383863 21.7305884536 1.56741631565
6932 1 35.5883745909 19.820974838 2.19087890601
6933 1 35.5849294605 22.3886043346 3.48750921225
7497 1 36.9611962832 21.7412481574 1.54535408241
8052 1 41.1191139212 19.7497321574 2.16095860006
7492 1 38.2942223467 19.8057559812 2.17618779031
7493 1 38.3334061429 22.3762607517 3.46382293778
8053 1 41.0644271679 22.3465171145 3.46539721533
8057 1 39.745756703 21.7203642102 1.52852421431
8548 1 43.9551873989 19.8254136253 2.19998138395
216 2 44.8636731217 21.8184428327 1.42290914912
8617 1 42.437766635 21.6550678243 1.67264265992
8613 1 43.8948564142 22.2406247893 3.53654229856
211 1 0.948850048221 25.9743595687 2.58140753964
849 2 2.82021629102 27.3287397798 2.47140174819
777 2 2.1430838019 24.0335730839 1.99901668988
219 1 1.11190495563 24.611265205 0.155700516553
217 1 0.0226461212765 23.6840113294 2.95220267499
771 2 4.9589730546 25.2580799949 1.80815837465
1331 1 7.35370738403 24.899771029 1.75656610732
1409 1 6.14660973324 26.9944409508 2.32288891854
842 1 4.38987901504 27.4066884074 0.488369966162
1337 1 5.85621933921 24.3139905867 3.65812322278
1891 1 10.0245111039 24.8361531875 1.69661868091
1969 1 8.68300391247 26.8260808476 2.30868022286
1897 1 8.65604648939 24.2315561109 3.62715546364
1962 1 10.007278729 27.4235780079 0.381755297475
2529 1 11.3923556761 26.7605669213 2.30233181758
2457 1 11.4518489354 24.1553750134 3.57138461165
2451 1 12.7905842633 24.8507035131 1.67149318298
3089 1 14.145115275 26.7919647156 2.29965901631
3017 1 14.1843562908 24.2312731451 3.56938599262
2522 1 12.7617542374 27.4205991507 0.371646986773
3011 1 15.5281884291 24.902575306 1.65907600633
3571 1 18.3487115199 24.8167606954 1.41735869054
3649 1 16.9882277572 26.7929207377 2.1521961248
3577 1 17.0814870838 24.20800603 3.44182569823
3642 1 18.3938006408 27.4317961017 0.180482003032
4136 2 20.5361590749 23.6121055772 1.62743647539
4131 1 21.858197192 25.4386334787 1.30899000364
4209 1 19.514442088 26.8767989457 2.12417201968
4202 1 21.5557871253 26.8507202369 3.04713725033
4698 1 22.487895042 24.2945067365 3.32318968682
4134 1 20.0359150579 24.5383940587 3.61370769224
5258 2 25.8404517662 24.4084468651 3.10736989581
5329 1 24.2280324239 25.2972228322 1.21908053044
4769 1 23.8993314036 26.3442535771 3.34856190708
5326 2 26.2247046255 25.8025865761 0.202527110172
5251 1 26.9587470639 23.5992548483 0.873165638331
5811 1 30.004532944 23.6172957608 0.942591859547
5322 1 27.2962085493 26.1801145751 2.20890989565
5818 1 28.6200228019 24.2683551211 2.81838708117
5882 1 30.0152160811 26.201805281 2.20710079071
5886 1 28.6682855623 25.4994893375 0.321580274789
6371 1 32.811653842 23.6493218972 0.92379243489
6378 1 31.4342151636 24.2797833939 2.83692357795
6442 1 32.7964865805 26.2233683038 2.20803908803
6446 1 31.3991346095 25.565168091 0.286551156336
7006 1 34.1839941831 25.5795015949 0.28034005102
6938 1 34.1954758942 24.3058892814 2.85377732456
6931 1 35.5807447128 23.6615467283 0.912150157283
7002 1 35.5849788055 26.2227463643 2.2079804382
7498 1 36.9684807259 24.3016924954 2.83219466308
7566 1 36.9783006787 25.5690772141 0.274527321438
8051 1 41.2674877817 23.6184673595 0.83197766819
7491 1 38.3763900782 23.6542665702 0.903562681102
7562 1 38.3772447615 26.2024317801 2.18632351546
8058 1 39.7724205144 24.2748486225 2.78453629844
8122 1 41.1912499419 26.1879106321 2.20280134956
8126 1 39.8168392321 25.5539440955 0.276969989715
8611 1 44.0579945524 23.8546019226 1.14669200937
288 2 45.1558765085 26.0122540968 0.588224405152
8618 1 42.4760987149 24.2055262843 2.8933993165
8682 1 43.9825128099 25.9869497876 2.47702165931
8686 1 42.591950608 25.6982784522 0.354837271822
282 1 1.50279340073 27.5147520909 0.639235707924
286 2 0.803088762259 29.7375348937 1.27402056999
846 1 2.99517843005 29.4836185117 1.11248146573
283 1 1.13878478831 28.5202715899 3.40720108816
847 1 3.02652337148 30.7183823591 3.5628879981
1402 1 7.33440937517 27.5127996871 0.368137877436
843 1 4.50708803561 28.8371004894 2.91253461715
1403 1 7.31312094895 28.8298414638 2.97415232825
1406 1 5.8422564918 29.3511641919 1.02936200397
1401 1 7.23216562822 31.3094429045 1.65207988761
1407 1 5.87893640499 30.6728876288 3.57026315155
841 1 4.47025228933 31.3113617427 1.69471272356
1961 1 10.0042224551 31.3190979725 1.6719940751
1963 1 10.0276561129 28.7378501944 2.9506202686
1966 1 8.65974019647 29.4031259759 1.03029662044
1967 1 8.63305937272 30.702643577 3.59574129821
2527 1 11.3969739699 30.6613422341 3.58833016346
2526 1 11.3747838726 29.3529457404 1.01128493231
2521 1 12.7396647095 31.2684005859 1.63722415443
2523 1 12.7536602504 28.6989482199 2.9265553575
3086 1 14.1201770754 29.3643773028 0.99903471684
3087 1 14.1307072426 30.5898107394 3.5425007756
3082 1 15.4791944537 27.5148928341 0.35899139104
3081 1 15.5225153595 31.246740702 1.62705294472
3083 1 15.5830734983 28.7047044775 2.86257615591
3643 1 18.3302870919 28.8165473573 2.80711834871
3646 1 16.9777182332 29.3855847649 0.919992926001
3647 1 16.9579118474 30.655805469 3.48308214444
3641 1 18.4255843863 31.3714011525 1.61034611373
4208 1 21.0597353506 27.6076204102 0.423467095411
4203 1 21.1578916917 29.1497033957 2.74613096542
4201 1 22.0644039059 29.9152569608 0.645302409339
4206 1 19.6781761814 29.4837859439 0.871025291176
4207 1 19.7562895842 30.775787963 3.54691497894
4767 1 23.2365212854 27.8458849457 1.61605861046
4768 1 23.4360249027 30.0944263568 2.56882655512
4761 1 24.486011154 30.014378027 0.34565745889
5327 1 25.6662010244 27.9350906271 1.75520356966
5328 1 25.7691675314 30.7746519214 2.44378714052
5323 1 27.2188107879 28.7725117573 3.4555853664
5321 1 27.0537044253 29.7737191256 0.730244196141
5881 1 29.9613611843 30.0638962448 0.877174899756
5883 1 29.9898660886 28.7852313506 3.47026109163
5887 1 28.6319315228 28.1540110014 1.6005511696
5888 1 28.5248395252 30.6689757888 2.72128093279
6441 1 32.7793332115 30.0451784896 0.88885570893
6443 1 32.7806226294 28.7681941626 3.46400945696
6447 1 31.3797931593 28.1378658756 1.54431912857
6448 1 31.3702117476 30.6897053334 2.78702242428
7007 1 34.1873919299 28.1319721882 1.55552002165
7008 1 34.1885343069 30.662566339 2.80416890523
7001 1 35.5918974214 30.0256450266 0.898701236218
7003 1 35.6014565354 28.7640145468 3.48964840911
7567 1 36.994366641 28.1188623921 1.5544206221
7568 1 37.000076667 30.643195157 2.82954407164
7561 1 38.3797127297 30.0132647664 0.893628976113
7563 1 38.4200662849 28.7800167117 3.47067184316
8121 1 41.2006701129 29.9691308848 0.857229710632
8123 1 41.1951485162 28.7637987636 3.43126890846
8127 1 39.7861020497 28.0973769656 1.52822897553
8128 1 39.8273200083 30.6138178214 2.74444630433
287 1 45.5362443392 30.6014613392 3.35109644233
289 1 45.0728612821 28.0264793842 1.72188373778
8681 1 44.0495798648 29.9094675889 0.752383710208
8687 1 42.5699126634 28.1117655247 1.51978457095
8688 1 42.6983610156 30.7096357866 2.7859493439
8683 1 43.8272846315 28.6855612279 3.51000852206
281 1 1.38696289472 31.8962106495 1.88415105381
353 1 1.23253761946 34.2011097659 2.78571191309
919 1 3.23580051508 33.2733416923 2.27040138026
918 1 1.79531047887 34.0241789122 0.180262617276
344 2 2.99343607827 31.8819992073 0.00507053403966
912 1 4.4498198157 33.9087806866 0.361610794632
913 1 4.57664959178 35.1508206429 3.01314648099
1472 2 7.22846463769 33.7754007764 0.271126056008
1473 2 7.2175964334 35.1973078267 3.10726227071
1479 1 5.88613615626 33.2488407064 2.25889909135
2032 1 9.98815840817 33.8367322237 0.394051476499
2033 1 9.97134997935 35.1218315608 2.96554340877
2039 1 8.58614318154 33.2346329242 2.30381564285
2599 1 11.3800333155 33.218468062 2.3096137796
2592 1 12.7605636716 33.8141601251 0.357118896332
2593 1 12.7807695324 35.1099903529 2.97872695233
3159 1 14.0981907335 33.1554638008 2.2381989404
3152 1 15.5623697681 33.8003830574 0.351568860002
3153 1 15.5138607151 35.0224815229 2.77355633272
3712 1 18.4315382219 33.8219929496 0.353946675496
3719 1 16.9394730973 33.1197127084 2.20746252953
3713 1 18.2519341703 34.9716391647 2.97340040945
4279 1 19.8790791228 33.4180970546 2.16646736878
4836 1 21.3691121378 31.7891626238 1.71658402745
4839 2 22.0246849125 33.6047131397 3.25176242043
4838 1 22.6296906956 34.5747208267 1.33258197756
4832 1 23.8214141145 32.4656363006 2.05126409736
5396 1 25.6777859926 32.1744259963 0.390921621029
5397 1 25.5070963008 34.6273315454 1.63726942079
5392 2 27.2913327878 32.7773076591 2.18155401596
5393 1 27.1147742766 35.096869287 3.43931359175
5952 1 29.9582699469 32.6114793806 2.14516394968
5953 1 29.999701834 35.1509415862 3.43792720705
5956 1 28.4923054589 31.920659002 0.240666896217
5957 1 28.5780363514 34.585996628 1.53132297241
6512 1 32.7973846143 32.5950014093 2.1603728478
6513 1 32.8362272868 35.1320498318 3.43287661289
6516 1 31.3737058624 31.972015347 0.253147704119
6517 1 31.394207044 34.5163788554 1.52338533518
7076 1 34.1943830733 31.9487019496 0.247586122841
7077 1 34.2330489556 34.5028338168 1.5307173716
7072 1 35.5892721009 32.558476914 2.15782625275
7073 1 35.653034077 35.1234967167 3.44776731367
7636 1 36.9842582367 31.9285258107 0.242120137339
7637 1 37.0094652238 34.4714749583 1.5358295259
7632 2 38.2553247318 32.5425566016 2.16847329704
8192 2 41.2901530694 32.4543788199 2.0105587526
8197 1 39.8517049232 34.4551741295 1.49213125775
7633 1 38.4730400411 34.907251927 3.47807446718
8196 1 39.7757414024 31.8904579589 0.244360305407
8193 1 41.248391188 35.0526298698 3.46888582209
8752 2 44.3901374919 31.9826922527 1.46593190039
8753 1 45.3249229351 33.9133316414 1.113859323
8757 1 42.7511514117 34.2321484898 1.64783107549
359 1 44.8702025655 32.9568966737 3.5417310491
8756 1 42.5288257996 31.7646177903 0.0915100451964
8761 1 44.3964145262 35.3561248622 3.04999878043
356 1 0.583424628178 36.0033599655 1.20526195729
351 2 1.8439018571 37.7865912333 1.56039062137
916 1 3.02872808184 35.7663112608 1.42142018916
917 1 3.24408945109 37.149205879 3.5639359232
357 1 0.985556588357 36.3354287234 3.50093842742
911 1 4.57495564558 37.6712598245 1.69752096109
1471 1 7.24764115787 37.6334547822 1.75261310218
1476 1 5.88619473835 35.7176743579 1.07894777082
1477 1 5.78155986948 37.095685645 3.72377125237
2031 1 9.99782687353 37.6315879589 1.69774483781
2036 1 8.59160959918 35.7247258775 1.06071609576
2037 1 8.62195892663 37.0337935237 3.64845140432
2597 1 11.3650708866 37.0218902903 3.63056344704
2596 1 11.394569264 35.7330151204 1.04775405841
2591 1 12.7943688811 37.6372701762 1.72290157765
3156 1 14.1322531046 35.7205315898 1.03431452533
3157 1 14.1777310537 36.9832538536 3.65213029832
3151 1 15.6103722232 37.5581588659 1.78890507409
3711 1 18.2400055576 37.5227983022 1.83512553376
3716 1 17.0514141103 35.6766793034 1.00777213195
4837 1 19.9199511184 35.7825977157 1.47846094147
4271 2 21.7676185536 39.1319942484 1.96001102203
4276 2 21.4407917718 36.4548293426 0.0632388427379
4277 1 19.6568890048 36.7538079299 3.70304496664
4348 1 19.9396921156 38.275897163 0.25049230131
4273 1 21.8908950445 35.9114580346 3.70352895911
4902 2 23.6591037019 36.4759959277 2.52233898906
4831 1 24.1934274516 36.6272997075 0.424502386646
5398 1 25.7793093767 37.0554050851 2.78058673023
5466 1 25.7809360088 38.4094346541 0.182788141135
4907 1 24.2822386327 38.9414980078 1.9918846844
5391 1 27.127950099 36.455931795 0.88005925168
5462 1 27.1725606396 38.9791195346 2.10865442101
5951 1 30.0043039839 36.4466764466 0.887872186563
5958 1 28.5545972847 37.0392952277 2.77979367886
6022 1 30.0187968121 38.9492686254 2.14620886353
6026 1 28.6128107824 38.3437681144 0.249712150506
6511 1 32.8442176814 36.4219131597 0.890142426598
6518 1 31.4368040212 37.0474223835 2.78672251927
6582 1 32.8757283764 38.958879583 2.15773615033
6586 1 31.4519348437 38.3347365693 0.255606319833
7078 1 34.2810527808 37.0477390695 2.79521245141
7146 1 34.2861465693 38.3476792958 0.266772035034
7071 1 35.6760040461 36.4209608355 0.902055912285
7142 1 35.7420822323 38.9574530735 2.16621385255
7638 1 37.1415943781 36.9961609243 2.81887480494
7706 1 37.1494982591 38.3399018585 0.278808933072
7631 1 38.4261130607 36.3233735429 0.890128333011
7702 1 38.5874297564 38.9528425773 2.19315737162
8191 1 41.3328005356 36.2931068671 0.904005455454
8198 1 39.7755277346 36.8448535929 2.83095066191
8266 1 39.8834800084 38.2090710572 0.175353954731
8262 2 41.0226449705 38.5286312295 2.0531715076
8751 1 43.8904122729 36.1733059628 0.746174390909
8758 1 42.627953764 36.9535609875 2.8772408945
8822 1 44.9022402679 37.8968154249 1.89828255577
8826 1 42.8975286854 38.3490709785 0.425660458351
989 1 3.31579501223 39.7243130843 2.30044399178
423 1 1.18630227791 41.5588046469 2.88331988772
986 1 3.11334419115 42.0640255165 1.31074601169
422 1 1.8027162904 40.0523938485 0.451648332817
426 2 1.10848428502 42.226237812 0.338336030307
982 1 4.57631917967 40.3179200369 0.363554000421
983 1 4.75556859026 41.6300008456 2.92786231782
1542 1 7.28572943753 40.2322290857 0.412571776417
1543 1 7.2967409862 41.5442020457 2.94898803061
1546 1 5.96613952629 42.2163940494 1.01413152506
1549 1 5.88244306928 39.6091495164 2.33045072771
2102 1 10.0485749529 40.2038573326 0.385404986601
2103 1 10.0115015486 41.495226909 2.9589530801
2106 1 8.65633336367 42.1294093641 1.03771705595
2109 1 8.65349308689 39.5855467562 2.30737288426
2669 1 11.3818351539 39.5604723561 2.32895953713
2666 1 11.423841452 42.0975849367 1.03608788591
2662 1 12.8395852592 40.1909996017 0.43271814645
2663 1 12.7819819566 41.4551273398 2.98159000418
3226 1 14.2563268086 42.0669655007 1.13238050784
3229 1 14.1952904454 39.50862062 2.40038848741
3222 1 15.589700625 40.1086153399 0.512245961488
3223 1 15.5934036633 41.4068476329 3.05440110831