ITEM: TIMESTEP
6000
ITEM: NUMBER OF ATOMS
8960
ITEM: BOX BOUNDS pp pp pp
0.0 45.68
0.0 51.0717926061
0.0 44.6878185303
ITEM: ATOMS id type x y z
569 1 3.24400030008 1.4047465748 2.43317589846
2 1 1.73302439216 2.21739846988 0.859988394868
566 2 3.28096131413 3.86050643961 1.17435610852
3 1 1.07461123284 2.96907683534 3.58506475923
562 1 4.48351830592 1.82280773357 0.368546837212
563 1 4.63306962624 3.20040556505 2.98481477705
1122 1 7.19514042572 1.77268914297 0.372353976564
1123 1 7.18780097508 3.07360752799 2.95540135186
1126 1 5.89949585333 3.72086960952 0.994561935618
1129 1 5.79056034377 1.11435704671 2.29638579641
1682 1 9.95520382958 1.79386266316 0.377036627491
1683 1 9.93209574492 3.09035795275 2.95545748029
1686 1 8.56376756573 3.72036127618 1.02050451249
1689 1 8.54577859364 1.16049488874 2.30308437668
2249 1 11.2418422651 1.12375240045 2.33179535685
2246 1 11.2692961519 3.72181040169 1.03134213666
2242 1 12.598239409 1.68970727681 0.335650819265
2243 1 12.569592455 3.06423383837 3.08649060775
2809 1 14.0890406043 1.20440714358 2.3109219613
2806 2 13.6376682717 3.38893964611 1.2252949108
2802 1 15.437329838 1.97865162935 0.394469155967
2803 1 15.464276524 3.21798425065 2.82889569027
3362 1 18.330406395 2.0034916997 0.323593435678
3363 1 18.0923591264 3.16553331746 2.85135276103
3369 1 16.8214879303 1.32279354979 2.26840581288
3929 1 19.8253367903 1.64092100526 2.26797915123
3922 1 21.1359933699 2.08917531667 0.117567704541
3923 2 21.7829595694 3.35003282142 2.27427742915
4489 1 22.2749591608 1.1659054893 2.39328244821
3926 1 19.6937813201 3.91134115824 1.07512773461
4487 1 23.7213803942 2.52174681736 0.810268217625
4482 1 24.6212750916 0.75594912484 2.3426302411
5047 1 25.8933124273 2.71875872218 1.63614583674
4483 1 24.184561141 3.32751969149 3.33567428942
5046 1 25.7911275226 0.31366375535 0.279314844572
4486 1 23.2939993801 0.129113841168 0.372125062528
5042 1 27.2379304006 0.78432439631 2.25506609778
5043 1 27.2756839036 3.26236722833 3.53548888722
5602 1 30.0791443975 0.781163779607 2.20408416929
5603 1 30.0587886249 3.29451148775 3.47652579706
5607 1 28.6415900591 2.66444498146 1.60700669606
5606 1 28.6635193136 0.147609310376 0.301844581161
6162 1 32.8587017496 0.80023842434 2.19581329163
6163 1 32.8222196996 3.33746960562 3.44174456223
6167 1 31.4486608543 2.70920860515 1.55244666231
6166 1 31.4773422564 0.170397406685 0.271472898342
6726 1 34.2661417966 0.170568956826 0.286228542397
6727 1 34.2855530274 2.66968551874 1.5673477672
6722 1 35.7043333424 0.791115305121 2.19890440767
6723 1 35.6879311579 3.32498259879 3.46326445368
7287 1 37.1101160317 2.72102439828 1.55667773834
7286 1 37.1125543658 0.172355797827 0.280194032431
7282 1 38.5473553097 0.828916388043 2.18115829743
7283 1 38.5788211278 3.34194830236 3.42249742118
7842 1 41.3454387022 0.866223102756 2.17381286627
7843 1 41.5891106709 3.47751485603 3.21078425602
7847 1 39.9944021327 2.76146763427 1.50495260166
7846 1 39.9351773385 0.208602074873 0.236872170301
8401 2 45.2595680211 2.3615896835 1.72305028813
8407 1 42.926773131 2.77089580892 1.05186438958
8402 1 43.9526602589 0.795147207293 2.53939284692
8406 1 42.6747485089 0.184578766352 0.349500258988
8 1 45.5752869207 0.390399657417 0.141578496257
8403 1 44.0880486495 3.91139701812 2.90981062965
6 1 0.816942050435 4.44956539921 1.51067985617
639 1 3.17435777763 7.55189441578 2.31938138403
79 2 1.1590103322 6.63035812757 2.05297512609
567 1 2.91967898112 5.01705417049 3.44797362416
561 1 4.65134825138 5.68277992483 1.70480961677
1121 1 7.21914987262 5.69609503278 1.65386691984
1199 1 5.84692554936 7.64916872048 2.31946322782
1127 1 5.92220850976 5.08765576756 3.6365671287
1681 1 9.9366222833 5.67644089161 1.66084767442
1759 1 8.57896029111 7.63357574508 2.2788320677
1687 1 8.55780610794 5.03533851224 3.58332282219
2247 1 11.2677893589 5.07331447376 3.60888308296
2319 1 11.3172436188 7.59064476677 2.30097170369
2241 1 12.7146325885 5.65496336956 1.65679985957
2879 1 14.0626256187 7.62766133039 2.3283698246
2807 1 14.0327589567 5.02320246532 3.61169640516
3366 1 17.1090539915 3.9986837282 0.750394904761
2801 2 15.3553479695 5.82766832202 1.80213683903
3361 2 18.3631922854 5.70116898031 1.75726743483
3439 1 16.9210723787 7.56703527514 2.37355790559
3367 1 16.8912773553 5.05003610033 3.5268255752
3921 1 21.8987523409 5.72142806921 1.80461659138
3927 1 19.8747584781 4.54237448278 3.43266002781
4559 2 20.5861333542 6.66252182288 3.69001999805
4481 1 24.4993354834 4.73424671552 0.929145402056
4552 2 23.923074314 5.85053241965 2.86852096447
5048 1 25.9935256085 5.06908836647 2.91787877253
5116 1 25.6629820878 6.74320722937 0.904075592799
5041 1 27.247368382 4.61097677412 0.954173905783
5112 1 27.4169621722 7.1829569293 2.27754935129
5601 2 29.890520955 4.46748048158 0.867688455778
5608 1 28.700243529 5.2157177037 2.86819208545
5672 2 29.9816346638 7.36707553497 2.15505821027
5676 1 28.6260423834 6.487204869 0.349054932411
6161 2 32.977996547 4.56159739983 0.918387641509
6168 1 31.3529990613 5.24054724969 2.7772201739
6232 1 32.7827100423 7.10494530386 2.19242181911
6236 1 31.4037604568 6.43400036983 0.324305089447
6796 1 34.2180923837 6.4775349189 0.295886520948
6728 1 34.2304816272 5.2254837919 2.83518794432
6721 1 35.667353924 4.60030148272 0.923523480886
6792 1 35.6322798976 7.11418231148 2.18202713787
7288 1 37.0944254978 5.23175779211 2.80952507454
7356 1 37.0677329801 6.50319744354 0.274855409105
7281 1 38.5236815328 4.65394353843 0.894767849351
7352 1 38.4859741079 7.17162773424 2.14984346806
7848 1 39.97060988 5.29007676438 2.7371965175
7912 1 41.2678762219 7.32839929305 2.07615055176
7916 1 39.9192787106 6.62225078633 0.217387765884
7841 1 41.4228173639 4.7333433505 0.862675905441
8408 1 43.0716778773 5.96235160385 2.64078119079
8472 1 43.811808938 5.23224102843 0.544894380414
8404 1 44.9209486129 7.45252610412 3.54875713923
76 1 44.7666299466 7.52917029465 0.932219737495
72 1 1.66295792876 8.10659610584 0.207465495703
73 1 1.47662304736 9.15115796047 2.94186133583
636 1 2.92466675874 9.93875691658 1.0857044806
637 1 2.78224157383 11.2806925699 3.57232731273
134 1 0.219903685999 10.0166691146 0.593712312362
632 1 4.43516675702 8.20246731039 0.344610220656
633 1 4.38056841916 9.54619396185 2.94155172183
1192 1 7.19177353698 8.27690434727 0.354854609247
1193 1 7.18435340311 9.56924490526 2.88884175941
1196 1 5.73931509121 10.2074168722 1.0119105954
1197 1 5.72763229723 11.4579457943 3.5020519555
1752 1 9.96592299502 8.24171546019 0.353130848436
1753 1 9.97448896609 9.54773721919 2.89460266685
1756 1 8.60462048128 10.1747901275 0.982420614747
1757 1 8.56531903511 11.4513592038 3.5666334585
2316 1 11.3393435012 10.1583391207 0.989937870147
2317 1 11.3874310783 11.4307092197 3.57755619054
2312 1 12.7123485118 8.23702114052 0.375117484187
2313 1 12.7120770331 9.51890957364 2.92757457492
2876 1 14.1487777196 10.1209560055 1.02426426957
2877 1 14.1588399844 11.4006735437 3.5573760092
2872 1 15.5514243156 8.18151760914 0.460656215652
2873 1 15.5575677377 9.49701780275 2.95381660465
3432 1 18.4223825657 8.18968249925 0.637565597676
3433 1 18.4014225992 9.43382458541 2.87956025486
3436 1 16.9645134252 10.1142486429 1.06155140614
3437 1 17.0520881352 11.3813716367 3.58248466421
3999 1 20.8592284272 8.01201178997 1.89946011032
3993 1 22.0860704737 9.92991891554 2.69053732239
3996 1 19.9373758717 10.1647104433 1.12868471082
3997 1 19.8832488155 11.2773338337 3.53806869492
4557 1 23.4123668745 7.99138664806 1.78970756695
4551 1 23.6603321494 10.6524779564 0.856310562256
5117 1 25.6958779975 8.99794724659 1.6311465168
4554 2 24.2011561469 8.89664161568 3.71267315052
5111 1 26.1392436849 11.3533309551 1.94432660848
5118 2 23.7531004477 11.7682319049 3.03515449152
5113 1 26.9757348466 9.54401540943 3.60910541009
5671 1 30.0612839061 10.9604353583 0.916973839988
5673 1 29.9751401819 9.62001952987 3.45556356594
5677 1 28.3575540004 9.29647539286 1.54441985228
5678 2 28.549646423 11.3311431629 2.82703112776
6231 1 32.8329940594 10.931194075 0.894056877832
6233 1 32.7942374233 9.63998701843 3.4648965342
6237 1 31.4183189389 9.0493760017 1.54594116052
6238 1 31.3805693997 11.5614255976 2.80742390203
6798 1 34.1945852968 11.5573338396 2.82959951001
6797 1 34.1873578718 9.01614432317 1.56115439836
6791 1 35.565085918 10.9272734303 0.892249931844
6793 1 35.5943649951 9.62439234533 3.45986503386
7357 1 37.0023978839 9.04553309909 1.52626788652
7358 1 36.9400803487 11.5557124986 2.80008199012
7351 1 38.289528407 10.9940168609 0.817701765683
7353 1 38.3647733093 9.63443256929 3.42976685202
7911 1 41.0902407521 11.3395324894 0.736603262516
7917 1 39.7403640791 9.17933949869 1.49618089977
7918 1 39.5596552425 11.6048559228 2.7367777998
7913 1 41.1488292627 9.85583098401 3.53174573483
8477 2 41.986101615 9.48769746817 1.56356353533
8473 2 44.9408127607 9.42131527665 2.49104005937
8474 1 45.4738593552 11.5619585812 2.8036575291
7914 2 43.2300014929 11.5990380861 3.67336732744
71 2 1.63408614252 11.8209341398 1.53794577696
706 1 2.10371791308 14.2800130419 1.02055781583
149 1 1.81220949536 13.6540763508 3.29630522651
709 1 3.85035635422 14.9169124083 2.49808876579
631 1 4.15872946997 12.2790146321 1.67444652949
1191 1 7.19123062513 12.0535538711 1.61556230214
1262 1 7.20724222755 14.6281505898 0.321421840642
1269 1 5.89360635569 13.9723022503 2.20113824826
702 1 4.43590153065 14.7797110815 0.123901141578
1751 2 9.98994128372 12.1160172506 1.75147262729
1822 1 10.011468949 14.5716828213 0.334406451071
1829 1 8.60353298989 13.9703049594 2.24651349023
2389 1 11.4114526167 13.9882642673 2.27820676805
2311 1 12.748761341 12.0367212044 1.64224630967
2382 1 12.7929567273 14.5597228626 0.343375673826
2949 1 14.16048587 13.9418210479 2.29575684924
2871 1 15.5874760958 12.029372825 1.67661303607
2942 1 15.5430195709 14.5535199334 0.431757743421
3431 1 18.4378795577 12.0311471473 1.66608260686
3502 1 18.3956761201 14.5555736311 0.417620493565
3509 1 17.0156037135 13.9340277685 2.31453976051
3991 1 21.3906563601 12.1034545495 1.72497360455
4069 1 19.8596076616 14.0350996559 2.20809414267
4062 1 21.5111510823 14.6030702582 0.158289256938
4622 2 23.4339996019 14.6307774607 2.03847076483
5182 2 26.1036461058 13.541244078 1.30515553285
5742 1 29.9059232035 13.4625670245 2.16690595509
5746 2 28.8857860991 12.8194763946 -0.00190636892656
5747 2 28.7605760087 15.6140306004 1.48225205387
6302 1 32.7811600061 13.4785384934 2.1964007563
6306 1 31.4332288657 12.8643942627 0.292427597653
6307 1 31.3934947896 15.4000599825 1.59711013035
6867 1 34.1857154139 15.3951682936 1.57667184424
6866 1 34.1860072037 12.8675960784 0.290144561178
6862 1 35.569028064 13.4885536365 2.2032290435
7426 1 36.8976694353 12.8920406741 0.249700514183
7427 1 36.9145061113 15.4347828947 1.56598331235
7422 1 38.2564162539 13.5118967591 2.12457775875
7982 2 40.9690285616 13.4430084549 2.2525317408
7986 1 39.585982507 13.0140311782 0.189826803503
7987 1 39.6040646454 15.4212401685 1.49439517669
77 1 43.5536009365 13.1703288834 1.93965924541
141 1 45.3985595879 15.0237084627 1.81777217093
8547 1 42.4889434368 15.3503874747 1.48433923933
142 1 45.4205133809 12.6363835536 0.390702416966
143 1 1.76951462022 16.1503502177 2.68280014766
8543 1 0.856947413002 16.9787912998 0.588937690943
213 1 1.86719072383 18.6238873868 2.30632579227
703 1 3.34627891409 16.9021240318 0.885084076609
1263 1 7.31685001413 15.8143395524 2.97022306515
701 2 3.84399787738 19.3177830117 1.6263187178
710 1 4.02635159493 17.1860020476 3.06004848752
1266 1 5.77829101215 16.5066739482 1.28714591034
1261 2 7.33030853691 18.4277422162 1.18673242425
1821 1 10.02196009 18.4145478469 1.57975456895
1823 1 10.0017906629 15.900632767 2.89560883265
1826 1 8.6194426999 16.4801844556 0.960722307957
1827 1 8.59767535693 17.8424698977 3.49711101092
2386 1 11.4121533318 16.491831983 0.963631681494
2387 1 11.4108629503 17.8244094192 3.51811716391
2381 1 12.809226768 18.4212517245 1.59481443996
2383 1 12.8071296534 15.8917706899 2.90216384101
2946 1 14.1962683865 16.5115909155 0.964818688954
2947 1 14.2084697315 17.8282757026 3.51309061478
2941 1 15.6425864669 18.4330128302 1.57747048293
2943 1 15.5816986249 15.8846668105 2.86454945273
3501 1 18.2796035586 18.5060082107 1.53950669958
3503 1 18.3330515819 15.9038182559 2.85137622074
3506 1 17.0054326018 16.4994460519 0.926387451541
3507 1 16.9906753631 17.8079666861 3.52720151481
4063 1 22.5394474337 16.513896769 1.28139559395
4627 2 20.810360861 16.3658500976 2.81441369183
4061 1 21.0778378517 18.4764047225 1.549875658
4066 1 19.7378501906 16.494594346 0.869711093852
4067 1 19.5500263041 17.9796091982 3.50586038057
4628 1 22.8077084842 18.0709984772 3.22728474821
5187 1 25.2462333181 15.8851937537 1.23756496642
4621 1 24.186194147 18.1208301481 1.02389582072
5188 1 25.9001513121 17.9671045631 2.82859687338
5256 2 26.0573846612 19.2155496732 0.161243836785
4623 1 24.5102697508 16.2253008831 3.43857542794
5181 1 27.1958792902 17.280467922 0.934501374914
5183 1 27.2210743481 15.9945340119 3.45015720686
5741 1 30.0641938685 17.383512007 0.933303630485
5743 1 29.9928141898 16.0404044042 3.50298336623
5748 1 28.6131095645 17.9380046921 2.84865592364
5816 1 28.602959734 19.2620564462 0.289425970794
6301 1 32.8379368624 17.3162962489 0.950335327054
6303 1 32.822901823 16.0098448238 3.49762398362
6308 1 31.4530972512 17.9317036409 2.87717959514
6376 1 31.4524702155 19.2458569835 0.299308509036
6936 1 34.2106605153 19.229653169 0.27653913568
6868 1 34.2453846359 17.8964037148 2.87156908051
6863 2 35.5817743456 15.7804533847 3.58143727506
6861 2 35.5493032596 17.3206706922 0.921208796751
7428 1 36.8898292734 17.9032656971 2.86481836965
7496 1 36.9100152581 19.2232039735 0.249346610693
7983 1 40.9902206773 15.7837135947 3.28542328825
7421 1 38.2647039818 17.3548270755 0.936613200522
7423 1 38.3259739562 16.0470578935 3.49425484013
7981 1 41.1526267486 17.285019935 0.990401356804
7988 1 39.6936659121 17.9062823276 2.83971027362
8056 1 39.7469003128 19.1900216131 0.284844417717
8610 1 43.991419228 17.2202998839 1.01686997327
8544 1 42.5610535778 17.8637861454 3.06720984013
8616 1 42.5588358717 19.1433050751 0.354155074757
147 1 43.8768816487 15.8070379431 3.3485880762
779 1 45.4282444541 17.7812041606 3.07470307314
218 1 45.6034067092 19.3787699588 0.51697232922
776 1 1.90488925775 20.8326300061 0.905009005163
220 1 0.365537339875 20.4299982381 2.81494493622
772 1 4.32471160153 21.0694677109 0.31125907413
773 2 4.56537071087 22.0801224471 3.15080489899
1332 1 7.18752196219 20.8392878467 0.348167812566
1333 1 7.2364407307 22.178520109 2.9460515601
1336 1 5.89654542017 22.7481535368 1.05948686263
1339 1 5.94361496675 20.1944778893 2.32757465235
1892 1 10.0465047879 20.9209000155 0.351169932439
1893 2 9.88963521269 22.1232483737 2.77308547775
1896 1 8.591873085 22.787955929 0.975811412773
1899 1 8.57483282716 20.2435363523 2.2612187026
2459 1 11.4316330045 20.3258606444 2.2428044874
2456 1 11.4510647521 22.8077970261 1.00521605048
2452 1 12.8589087459 20.9415629062 0.325711191312
2453 2 12.9887161427 22.1634627252 2.77230919105
3016 1 14.2634173793 22.8692251081 0.943038144198
3019 1 14.2455146961 20.2824988989 2.22324070546
3012 1 15.6724389121 20.9772140879 0.25947025209
3013 1 15.5423799731 22.2284978152 2.984785498
3572 1 18.3867638809 21.1539017289 0.20724418517
3573 1 18.4204950716 22.3222999107 2.95633946184
3576 2 16.7990814159 22.83963494 1.27238145301
3579 1 16.9978180679 20.420186676 2.21372355359
4697 1 22.5383599683 20.2873117404 1.90576076928
4139 1 19.7499371483 20.4040140907 2.21114514478
4691 1 22.3467022969 22.7159740756 1.24372025722
4133 1 21.4015728922 21.9955996835 3.37218518177
4136 2 19.9479445893 22.8206136769 1.38907363756
4132 1 21.0469842877 21.0092593203 0.135284636949
4692 1 24.7461515216 19.9877638555 2.28996799876
5257 2 26.0341998496 21.8420164169 1.71317485697
4693 1 24.1227810856 22.1062309813 3.42134005289
5252 1 27.2717261975 19.8874696423 2.24857042989
5253 1 27.1617868364 22.5837514439 3.49581455244
5812 1 30.0408809792 19.8391326097 2.2252294597
5813 1 30.0593068899 22.4177707126 3.51142937407
5817 1 28.6617435609 21.7554703079 1.61416963476
6372 1 32.8656939627 19.8406755486 2.22955650381
6373 1 32.8430649006 22.426214877 3.50780346558
6377 1 31.4363012035 21.7771056424 1.58918465909
6937 1 34.2162760251 21.7800203038 1.58402427743
6932 1 35.5735840738 19.8484609098 2.20737502634
6933 1 35.5882899364 22.4368474171 3.51361969882
7497 1 36.9432409248 21.7694008278 1.57105416463
8052 1 41.1097510389 19.7830724772 2.24556204236
7492 1 38.2689353058 19.824302819 2.17816084595
7493 1 38.3079836122 22.4514441144 3.4935181612
8053 1 41.1395675547 22.3879851186 3.52527286906
8057 1 39.7520557387 21.7267597666 1.5977110126
8051 1 41.2728402387 23.5670315882 0.903348414399
8548 1 43.8841446656 19.6924362345 2.27963658811
216 2 45.042896407 21.7413674998 1.3867084679
8617 1 42.5629768592 21.6422054743 1.76705684079
211 1 0.961083367081 25.8303563332 2.7002104309
849 1 3.20204783886 26.2476202196 2.07570155609
777 2 2.15622124812 23.9077237051 2.34868716965
219 1 1.34165915073 24.5107570331 0.361800438436
282 1 1.75711460762 27.2651202544 0.623017988443
771 2 4.82223346299 24.7703680222 1.27856934074
1331 1 7.3128802295 24.7177912628 1.62930488049
1409 1 5.92148850017 26.5949614371 2.31785335758
842 1 4.56517485746 27.2328416034 0.356007920649
1337 1 5.90983854471 24.1369241963 3.49804664127
1402 1 7.36265669326 27.2809607669 0.401357131492
1891 1 10.0820247717 24.6670421485 1.66435308486
1969 1 8.73712090325 26.6164740529 2.26699528159
1897 1 8.68162444362 24.0696222696 3.53867384936
1962 1 10.0720708359 27.2797033813 0.355956425791
2529 1 11.4281978927 26.6245985446 2.29262131329
2457 1 11.4371065597 24.0090537144 3.60870892793
2451 1 12.8091655156 24.7064121699 1.67660989243
3089 1 14.1361471571 26.687649168 2.31082296324
3017 1 14.1745040514 24.1618875005 3.58207400774
2522 1 12.8118622962 27.2934544391 0.359031163241
3011 1 15.5513150311 24.8053574509 1.68311223186
3571 1 18.386755742 24.8079957506 1.65276198572
3649 1 16.9430811585 26.7170092455 2.21202240246
3577 1 16.9719869295 24.1572445055 3.54651891719
3082 1 15.4734836117 27.4035331437 0.379519117477
3642 1 18.3998838139 27.390074084 0.327469365345
4131 1 21.108081429 24.8180513361 1.46771987256
4209 1 19.6910741282 26.7476616514 2.19926843183
4202 1 21.8210666739 26.4026112653 3.07720126685
4698 1 22.5734531365 24.06614851 3.34083643862
4134 1 19.9352950419 24.2816476118 3.58055875968
4208 1 21.562596965 27.2937834975 0.621316381891
5258 2 24.909401378 24.1521958256 3.48882753412
5329 1 23.5913755438 25.2520397757 1.49758540966
5326 2 26.0768617596 25.3837959931 0.692098487132
4825 1 24.4816513034 26.9273207442 0.0830263458221
5251 1 27.449294345 23.6723486203 0.96939803381
5811 1 30.0308209148 23.7221954022 0.957970713474
5322 1 27.3623032357 26.3200116 2.30411791211
5818 1 28.7486591332 24.3535988345 2.91146640091
5882 1 30.0103158824 26.3108144886 2.24717321002
5886 1 28.6182482308 25.6812283716 0.31762881433
6371 1 32.8119492546 23.7183575204 0.960276593121
6378 1 31.4350792607 24.3685722566 2.8832953628
6442 1 32.8160145653 26.3004644283 2.25454150654
6446 1 31.4064327734 25.6546855517 0.329927906857
7006 1 34.1958845577 25.6417068932 0.324134055459
6938 1 34.2098063248 24.3712153204 2.88872057285
6931 1 35.5863786655 23.7144011754 0.950108137698
7002 1 35.607064156 26.2869338857 2.25224697301
7498 1 36.9703591281 24.3664334267 2.88178614924
7566 1 37.0027613338 25.6115778304 0.326784064171
7491 1 38.3772853482 23.6757745569 0.974009498903
7562 1 38.4132195102 26.235294006 2.24419096675
8058 1 39.806715864 24.2953996291 2.86025630369
8122 1 41.2201714674 26.1790221371 2.2799833078
8126 1 39.8491654276 25.5426248124 0.342690396108
8611 2 44.8156339758 24.2363447269 3.26277417427
288 2 45.2488308423 25.8073115745 0.651285464702
8618 1 42.5254569872 24.1855835307 2.90938633288
8682 1 43.8520505026 26.1773040254 2.42355606086
8686 1 42.6071465842 25.5657026681 0.417368013514
286 2 1.15975602309 29.5540597931 1.38043408688
846 1 3.27608027018 29.1197095592 1.04596790623
283 1 1.49917686265 28.2213906482 3.30117308779
847 1 2.98684672734 30.3986331049 3.38119490988
287 1 0.0401653348818 30.3744447495 3.34773360799
843 1 4.43483794772 28.3692921531 2.95599066536
1403 1 7.31124510491 28.4961953525 2.93172261106
1406 1 5.92101513382 29.1242530251 1.0622370309
1401 1 7.28904165989 31.1265882128 1.60632696014
1407 1 5.94919565474 30.3978516332 3.52558248474
841 1 4.66754202839 31.0684841361 1.70339072335
1961 1 10.0256300528 31.1753662581 1.62634499938
1963 1 10.0684738595 28.5865045138 2.91135285735
1966 1 8.69168095575 29.2164873119 1.01002206628
1967 1 8.64474299183 30.5008371137 3.54153386429
2527 1 11.4031287785 30.5493844042 3.55176653467
2526 1 11.4259318074 29.2388232329 0.987105861901
2521 1 12.7791239103 31.200125402 1.63316786539
2523 1 12.7820003647 28.6179371251 2.92365082326
3086 1 14.1368077689 29.2848633076 0.996692645191
3087 1 14.1694279511 30.5690930983 3.56605782227
3081 1 15.5413492141 31.1886513021 1.64446112011
3083 1 15.5460322669 28.6387075251 2.88747161191
3643 1 18.2685315392 28.6717547401 2.77984736467
3646 1 16.9254069546 29.2824475999 0.93818915216
3647 1 16.9292176367 30.5732421799 3.58095978706
3641 1 18.2927724407 31.1482761246 1.6358087365
4203 1 21.2090775441 28.7152449594 2.82365576492
4201 1 22.3343074663 29.6561230794 1.00337463275
4206 1 19.8111430643 29.2808142904 0.919960747174
4207 1 19.6546981594 30.5033792553 3.52373149013
4836 1 21.05092438 31.3393265965 1.69210964899
4767 1 23.4605386638 27.7653836605 2.12029812564
4768 1 22.9101384432 30.4350767349 3.26709090189
4761 1 24.5831728135 29.9507753256 1.07795606834
5327 2 25.9508560858 28.3222386305 1.74476596351
5328 1 25.7571524668 30.8181676714 2.9809804369
5323 1 27.3086129961 28.890362068 3.58649560157
5321 1 27.2400392913 30.1779884482 1.00646458986
5881 1 30.0096674357 30.132570841 0.928632208868
5883 1 30.0051530592 28.8558077788 3.51725689256
5887 1 28.6052457757 28.2352198263 1.59762585307
5888 1 28.6542017989 30.8001069528 2.83879283816
6441 1 32.8243361315 30.1163562657 0.929788457399
6443 1 32.8293726219 28.8480353886 3.51014079593
6447 1 31.4091353059 28.2162230139 1.59341220129
6448 1 31.4349406639 30.7631429796 2.83911047482
7007 1 34.2260509184 28.2047690171 1.59614530064
7008 1 34.2558754508 30.7450956988 2.84436915053
7001 1 35.6604056261 30.0947326899 0.944005771146
7003 1 35.6565906305 28.8424578497 3.52248094466
7567 1 37.0370917153 28.1586691321 1.59633771993
7568 1 37.1131234823 30.7537134679 2.85271440172
7561 1 38.4535686082 30.0274662232 0.949595860925
7563 1 38.4556401663 28.8061416038 3.51980323758
8121 1 41.3303377622 29.9521543215 0.865433171692
8123 1 41.198139596 28.7686257058 3.49066167737
8127 1 39.8417547107 28.1167416847 1.581866999
8128 1 39.906966219 30.6715897147 2.84660995048
289 1 45.3737717978 27.8699262754 1.76978130527
8681 1 44.2206283464 29.7001773084 0.836963583118
8687 1 42.5907869601 28.1057072345 1.6000634882
8688 1 42.8090204657 30.6272479124 2.82056202889
8683 1 43.9579560475 28.563561624 3.51769870052
281 1 1.26148796737 32.0102658403 1.76754695563
353 1 1.45152839424 34.3970704001 2.84357675838
919 1 3.27534297937 32.9864259445 2.25040233966
918 1 1.76948957684 33.9465378977 0.268009154489
344 2 3.28700147423 31.6945896908 0.0655270669405
912 1 4.56995663822 33.681035211 0.31763248622
913 1 4.59749822292 34.9313625902 2.92249121004
1472 1 7.2410705519 33.731663815 0.27663449056
1473 2 7.24213694338 35.0395727097 2.8973508723
1479 1 5.99150175607 33.0592214881 2.24365878972
2032 1 10.0145705655 33.7530439424 0.331696524267
2033 1 9.98086960761 35.0396363956 2.87914062616
2039 1 8.62371818366 33.092752871 2.2368096292
2599 1 11.3749744891 33.1140718175 2.26316134332
2592 1 12.7724729009 33.7318702525 0.349185079966
2593 1 12.7384362437 35.0352512814 2.90059034392
3159 1 14.1653914003 33.1243428424 2.279125707
3152 1 15.5698773875 33.7516794516 0.358962849546
3153 1 15.5407991171 35.0670135545 2.89480561212
3712 1 18.3778575738 33.7514757395 0.441951383258
3719 1 16.9139063687 33.1033159042 2.29192946591
3713 1 18.2126974411 35.0414708355 2.90632438926
4279 1 19.6379146612 33.0299172969 2.33320087051
4839 1 22.0906872189 33.3054542786 2.63744717637
4837 1 20.335370751 35.195714314 1.88251057883
4272 1 21.1714113809 33.8285457012 0.0513659612306
4824 1 22.8301594179 32.0055724086 0.14393747432
4838 1 23.137767247 34.7248153027 1.24997490088
4832 1 24.3833208445 32.6449563496 1.99434655183
5396 1 25.7888544078 31.9747544198 0.209030667343
5397 1 25.7258047708 34.7380244397 1.57537678319
4833 1 24.2901506201 34.8655662851 3.66990455699
5392 1 27.1747419725 32.6974953181 2.14416932453
5393 1 27.220018163 35.255656327 3.45500024818
5952 1 30.0483545225 32.7069665789 2.191708407
5953 1 30.0702590053 35.2538564932 3.45198926423
5956 1 28.645595283 32.0747543032 0.289375221386
5957 1 28.6317807018 34.630300384 1.55641463423
6512 1 32.8598530623 32.667617469 2.18826321395
6513 1 32.9028077592 35.2173528975 3.44889846048
6516 1 31.424530191 32.040695948 0.273645956376
6517 1 31.4676200987 34.6014862537 1.54060882055
7076 1 34.2548035788 32.0091982853 0.285777455629
7077 1 34.2962467367 34.566828685 1.54500567054
7072 1 35.6973849224 32.6394446247 2.19517911662
7073 1 35.7260065499 35.1822427189 3.45564508223
7636 1 37.1145094654 31.9927503923 0.320261414864
7637 1 37.1220795553 34.5175580425 1.53656849258
7632 1 38.6333072535 32.6422213938 2.18325448904
8192 2 41.4292027081 32.2093126002 1.80587635843
8197 2 39.7656809952 34.8291636469 1.46754624555
7633 1 38.4119866772 35.1322150896 3.46939950178
8196 1 39.8756653155 31.7804220874 0.155761333706
8193 1 41.1112883367 35.1672596258 3.51002864377
8752 2 44.6488973543 31.7359799633 1.566621966
8753 1 45.0927998019 34.1198885699 1.50039042083
8757 1 42.4195608426 34.4477203697 1.54215735968
359 1 44.9868114542 32.7086332361 3.56659581568
8756 1 42.8271593062 31.8144123715 0.0823814074099
8761 1 43.7639355791 34.8901651503 3.50297117258
916 2 3.22879170423 35.3757345366 1.23630372322
356 1 0.786580772163 36.0705422074 1.17913327344
351 2 1.79067966726 38.0539558166 1.2919909314
917 1 2.87460607459 36.7231027106 3.06794606581
911 1 4.48744229308 37.5661346927 1.54451684394
1471 1 7.23945069085 37.5852170349 1.61724919132
1476 1 5.8724998933 35.6378495305 0.965318124463
1477 1 5.79930680216 36.9321304835 3.52207087274
2031 1 9.99733639177 37.5941318527 1.59154653471
2036 1 8.61971545401 35.6665691464 0.950678832856
2037 1 8.60593850528 36.972844649 3.52300499393
2597 1 11.364094249 36.9678538978 3.51849514708
2596 1 11.3960982461 35.6800460981 0.959066442971
2591 1 12.7825163709 37.6056558106 1.59311901914
3156 1 14.1266263922 35.6376460097 0.998396822321
3157 1 14.0758898736 36.9635517406 3.56296898714
3151 1 15.4829144719 37.5289112178 1.77801927465
3711 1 18.4338200167 37.4660673258 1.69940716598
3716 1 16.969646177 35.6953608406 0.945741567357
3788 2 16.7101900977 38.0912486947 0.0624152916038
3717 1 16.9841828211 36.9132414198 3.66177219637
4271 2 22.030823398 39.2362104945 2.04238160487
4276 1 21.797251129 36.7912534066 0.827591733575
4273 1 21.983809251 35.9378190261 3.46286281239
4348 2 20.0580107745 38.1752605314 0.0514796348746
4277 1 19.7540015091 36.8517476581 3.6227649116
4902 2 23.8135067383 36.6182764099 2.38664022441
4831 1 24.3288518317 36.7560655673 0.202618826067
5398 1 25.893883283 37.1918805932 2.74649223369
5466 1 25.9202375753 38.5596680805 0.173054387257
4907 1 24.4117684112 39.1038270531 1.96609579601
5391 1 27.2709863327 36.5897384835 0.888798729
5462 1 27.2781986551 39.1069551344 2.11735091265
5951 1 30.0722054437 36.5302721566 0.902490037115
5958 1 28.6577531147 37.1677064745 2.801123986
6022 1 30.0947790297 39.0716613928 2.17047458763
6026 1 28.7166960803 38.4640964694 0.261105492028
6511 1 32.9059496375 36.5002914595 0.903134235379
6518 1 31.5024524042 37.1453337601 2.80486468268
6582 1 32.9294420761 39.055901866 2.1801580206
6586 1 31.5143518521 38.4288748573 0.274721078937
7078 1 34.333217193 37.1259629909 2.80916349036
7146 1 34.3367359595 38.4236620948 0.280003506361
7071 1 35.7320702767 36.4791548789 0.908762782976
7142 1 35.7503542622 39.0681107683 2.18514282332
7638 1 37.1213892832 37.1347036191 2.83245529546
7706 1 37.1328436263 38.4527993077 0.276438254573
7631 1 38.4097662075 36.517302729 0.845644609872
7702 1 38.5792641949 39.0534389743 2.19835070398
8191 1 41.3092194451 36.5165839452 0.863201923626
8198 1 39.784395195 37.0293240135 2.80509076263
8266 1 39.9072075537 38.3971119722 0.172913015069
8262 2 41.1208379169 38.6712417762 2.04237177881
8751 1 43.9988848266 36.2578478586 0.855352861686
8758 1 42.7242411994 36.9416415002 2.80282863733
8822 1 45.0041286743 38.0397839374 2.07498727013
8826 1 42.9225494704 38.4799616624 0.34410380564
357 1 45.5596422803 36.2278812973 3.4340101711
989 1 3.22311817539 39.5600127346 2.1853052255
423 1 1.49141959829 41.5020271828 2.77954420192
986 1 3.08369806256 42.1490913971 0.92257172298
426 2 0.786467717918 41.9061984392 0.606886288624
422 1 1.95620566436 40.1040258004 0.108743393502
982 1 4.51778789462 40.2909272114 0.227542846974
983 1 4.44109679551 41.4889028373 2.80348495788
1542 1 7.28099764935 40.1994508076 0.316319817202
1543 1 7.22528844468 41.4570293632 2.83071108974
1546 1 5.87035888007 42.1564339685 0.917916199724
1549 1 5.83801527209 39.5262872708 2.18477230677
2102 1 10.022196184 40.18264075 0.283002046971
2103 1 9.99392357531 41.4661525657 2.86884756469
2106 1 8.65374517948 42.1094980935 0.957335006835
2109 1 8.62301293351 39.5312765602 2.22617499942
2669 1 11.3622783376 39.5305612761 2.22297386161
2666 1 11.3834953858 42.0841353494 0.959201374127
2662 1 12.7730556411 40.1581229762 0.295972709231
2663 1 12.7278723981 41.4387017415 2.89951027161
3226 1 14.1438064735 42.0293528508 0.988631696526
3229 1 14.1219211554 39.5236503349 2.27127767844
3222 1 15.5872153215 40.1266535944 0.344701117048