ITEM: TIMESTEP
24000
ITEM: NUMBER OF ATOMS
8960
ITEM: BOX BOUNDS pp pp pp
0.0 45.68
0.0 51.0717926061
0.0 44.6878185303
ITEM: ATOMS id type x y z
569 1 2.67842118104 0.992187861394 2.34026512965
2 2 1.64906454005 1.8150842072 0.211324847874
566 1 2.87529321982 3.58389913745 0.970077615369
3 1 1.2329961467 3.53752398526 3.17098849984
8465 2 0.24975488368 0.177462611664 2.78933719959
8401 1 0.15968865783 3.39174827265 0.95058974186
562 1 4.19451078481 1.56806662613 0.358620189521
563 1 4.23569461072 2.8760229503 2.87996481948
1122 1 7.05477615741 1.61239190044 0.368142088671
1123 1 7.07470297403 2.90135295787 2.89758855007
1126 1 5.64651943369 3.52934988088 0.987009796095
1129 1 5.64832785405 0.958065474343 2.25005304966
1682 1 9.88145719305 1.6513649537 0.35877329993
1683 1 9.90231850526 2.92565223948 2.89687087766
1686 1 8.47811729239 3.54352619547 0.990885472097
1689 1 8.47997857212 1.01750528115 2.2764207964
2246 1 11.2881840621 3.56633908471 0.981627000325
2249 1 11.2856829266 1.01827102325 2.27525351455
2242 2 12.5828293701 1.6598213984 0.333123771774
2243 1 12.7213437163 2.8706220521 2.85976228248
2809 1 14.2225455275 1.07926344033 2.03709069343
2806 1 14.1539445894 3.47086163135 0.93384295452
2803 2 15.3892025554 2.70153647126 3.17139549116
3369 1 16.7304020042 0.937620544817 2.22072785263
3851 2 17.9982423942 1.54245921394 0.266454916869
3929 2 18.7351311358 0.580801237289 3.18385031793
3363 2 19.2431128273 3.72577748088 2.54299061997
3362 1 19.9421960931 2.90235170172 0.490958656339
4411 2 21.0495286315 0.959427914026 0.647673052966
4489 1 21.1614810546 0.317681402087 2.96049823689
4488 2 22.1968794599 2.16178708806 3.72001121947
3923 2 23.5819219427 2.64278972021 1.11059393694
4482 1 24.1123617774 0.775726848335 2.78465799198
5047 1 25.8253801678 2.69529105521 1.65374891809
4483 1 24.3513066008 3.35152370167 3.52746360731
5046 1 25.7913569859 0.143099266665 0.508164331908
4486 1 23.1591376295 0.23817102026 0.671565149796
5042 1 27.2196995094 0.852666487831 2.25309779355
5043 1 27.1769699661 3.46454665677 3.54059679756
5602 1 29.9801086844 0.916617279068 2.25512447813
5603 2 29.9934758286 3.36174942164 3.62638923466
5607 1 28.5739757963 2.79408593503 1.61192339282
5606 1 28.5823453388 0.233003049792 0.322409117795
6162 1 32.7931810056 0.923875197886 2.21741069154
6163 1 32.8161460774 3.42390139961 3.482211847
6167 1 31.3617591432 2.82913488027 1.60400846095
6166 1 31.3821968282 0.262715689295 0.334664787949
6727 1 34.2185997664 2.81275709207 1.56954829984
6726 1 34.2037757881 0.26355956497 0.304375273569
6722 1 35.6443119609 0.924287890554 2.1804654277
6723 1 35.6785564689 3.42760055692 3.44278519336
7287 1 37.1122766821 2.83441298586 1.52153516682
7286 1 37.0223914593 0.237899587996 0.292097177447
7282 1 38.4466627681 0.85771316353 2.16198729142
7283 1 38.489175851 3.3738754091 3.47728172687
7842 1 41.390651342 1.06866965867 2.21347063914
7843 1 41.0869916727 3.23502556915 3.4527072839
7847 2 39.7722587393 2.67176486353 1.37891956844
7846 1 39.9416100902 0.240649840854 0.288985766217
7841 1 41.7342682702 3.68213204845 1.3030174843
8407 1 43.5959476233 2.35931865379 0.594610766634
8402 1 43.8731196996 0.903998069272 2.4460332498
8406 1 42.6776036456 0.047670744306 0.44801744887
8 1 45.336990181 0.612065790272 0.442463520241
8403 1 43.9348407899 3.30092939977 2.90656442292
6 1 1.71378258845 5.56868978032 1.46354425253
639 1 2.85156258519 7.55185808457 2.22564137791
567 1 3.09050211579 4.88832131441 3.50300221992
8404 1 0.294420128376 7.62218516668 2.11570747539
561 1 4.27580655 5.5492280975 1.53070292191
1121 1 7.09434620724 5.47116932936 1.62006149232
1199 1 5.7170861655 7.4249440327 2.24497740842
1127 1 5.68710722939 4.84345064072 3.50923914318
1681 1 9.90375089745 5.46609298748 1.62914954363
1759 1 8.51939978629 7.39737337524 2.26964549751
1687 1 8.50996761582 4.84026917263 3.53586182375
2319 1 11.3352683164 7.36814997274 2.2815907868
2247 1 11.3302848695 4.82443618667 3.51530840348
2241 1 12.7178911333 5.40522613878 1.60333226904
2879 1 14.0039453773 7.39769226187 2.25228372978
2807 1 14.1056670207 4.74069759751 3.50844041533
2801 1 15.1999187323 5.63239928781 1.45495002504
3366 2 16.5343410761 4.11474800748 0.59427562825
3361 1 18.5507372478 5.28149417178 0.787670143462
3439 1 16.8460044178 7.20415807056 2.20202181091
3367 1 16.9173338259 4.34025898989 2.90042454767
3432 2 18.1159257889 7.81906115684 0.387067524796
3921 1 20.8886670185 5.12116796739 1.80709129073
4559 2 20.3775079119 7.23138458964 3.11826876854
3999 1 20.1870946812 7.1535910418 0.869501832124
4556 1 22.7900042965 6.34223392986 0.441891509578
4481 1 24.5140671462 4.65642719334 0.953572973305
4552 1 24.1734760921 7.20618193292 2.27184342066
5048 1 25.7219161209 5.31328190637 2.93858912191
5116 1 25.8137551846 6.51164215179 0.380161329254
3995 2 23.0288270653 5.28884857698 2.76539419447
5041 1 27.1870777237 4.67189521416 1.03997529128
5112 1 27.1723901375 7.29250702109 2.39288783861
5601 2 29.9535216557 4.77531083413 0.851617633643
5608 1 28.5862389172 5.35098915901 2.89876101882
5672 1 30.02165473 7.19441883065 2.21964276721
5676 1 28.4944453143 6.67333771554 0.374060950796
6161 1 32.7984048651 4.70029123835 0.944062623576
6168 1 31.4022097248 5.28924909053 2.83545829087
6232 1 32.8201173408 7.20532142758 2.20954759712
6236 1 31.4122718027 6.6127668515 0.303087222361
6796 1 34.2234129998 6.6067722693 0.28972892316
6728 1 34.2401125965 5.31693118678 2.83713594028
6721 1 35.6205644444 4.71401524004 0.914782683573
6792 1 35.6010998986 7.26706665857 2.23861825944
7288 1 37.0706393095 5.32431463021 2.82401517777
7356 1 36.8658921793 6.76687746574 0.222367481062
7281 2 38.1648787819 5.08381853224 0.769899630101
7352 1 38.4316726942 7.27149663565 2.17960050405
7848 1 39.9170806581 5.22870406361 2.53777486219
7912 1 41.2040837202 7.3497068741 2.11786854957
7916 1 39.6807836086 6.7556230445 0.21431344718
8476 1 41.7648653431 5.84970832138 0.496026499675
1 1 45.3261338526 5.27510191844 2.50735072692
8408 1 42.706653887 5.41770300251 3.01159974167
8472 1 43.7918838367 4.69179558177 0.854671536791
76 2 43.8898589617 6.81685246424 1.36416726104
72 1 1.52589228176 8.32993235333 0.193819130496
73 1 1.48108033357 9.60423681594 2.88399466315
636 2 3.12145988458 10.0668910965 1.11722243159
637 1 2.9563155964 11.3143439353 3.60553092418
632 1 4.31534384967 8.05102531361 0.336774957542
633 1 4.35829954855 9.37032618807 2.93616849659
1192 1 7.12282555459 8.04824515825 0.34532123846
1193 1 7.13794717353 9.33385875061 2.91749659714
1196 1 5.74933414736 9.96232219682 0.983626828302
1197 1 5.77489430401 11.2631577646 3.63214476904
1752 1 9.90645966602 8.04393259141 0.366101922203
1753 1 9.94598248907 9.30779969546 2.92449042212
1756 1 8.52470701929 9.97328641814 1.00478000817
1757 1 8.56646559811 11.2309429957 3.59039154187
2317 1 11.3645520944 11.2269518755 3.5773252907
2316 1 11.2995785861 9.98529274345 1.00913396651
2312 1 12.6297114429 8.06920430194 0.340307783468
2313 1 12.7240707246 9.3244995282 2.92348290052
2876 1 14.0781624145 9.94347044845 0.966733543552
2877 1 14.2341563611 11.1647300717 3.60717868292
2872 1 15.4502591017 8.01840382419 0.3100600679
2873 1 15.4708183441 9.1841745277 2.79925984742
3433 1 18.5173774455 8.95092136029 2.63708996042
3436 1 16.9339668354 9.84816509225 0.99548342454
3437 1 16.9875657776 10.9663821632 3.25476977756
4557 1 21.9627089135 9.03578390795 2.47596538623
3996 1 19.7967675195 9.92189616639 0.892507101197
3997 1 19.9038724254 10.9308231555 3.1344282392
3992 2 21.5891143917 8.61700587149 0.10877407126
5117 2 26.6370243754 9.68284173977 2.00308427488
5118 2 23.5229745283 10.8065946459 1.81883200435
4554 1 24.6261541695 9.69404175511 3.40838324349
5111 1 27.2894636467 11.1446703353 0.553488271267
5671 1 30.0728265889 11.0590844198 0.858533596061
5673 1 30.1297585806 9.78376569532 3.49190981251
5677 1 28.7395359048 9.12030673183 1.60533204235
5678 1 28.5306255392 11.3981359341 2.67353969793
6231 1 32.8245024915 11.0633036675 0.916999222623
6233 1 32.8423494736 9.77559771078 3.49631928591
6237 1 31.4379935533 9.12511126638 1.55571691792
6238 1 31.4640969984 11.7048805393 2.81566676905
6798 1 34.2191038956 11.6548389502 2.8561510016
6797 1 34.2015440936 9.15287639052 1.57504326075
6791 1 35.5870128954 11.07175469 0.926011525567
6793 1 35.6488225704 9.76568324788 3.48937323628
7357 1 36.9996675125 9.1668110225 1.53412512273
7358 1 37.0694018372 11.6487194827 2.8050481441
7351 1 38.4173018702 11.086001469 0.813333072313
7353 1 38.4705123653 9.77772178383 3.41918006581
7911 1 41.1683718167 11.1516846286 0.598402093955
7917 1 39.7946880377 9.19233667027 1.43363882591
7913 1 41.2047624576 9.86886441456 3.39692044002
7918 1 39.7458564329 11.7091244204 2.74228847875
8477 2 42.2442395614 9.4040496738 1.35247499814
8473 2 45.4333493391 9.65213442577 1.18322336862
71 2 0.97590703252 12.1308601568 2.58923197246
706 1 2.84920078339 13.7136027212 2.31633569005
141 1 0.317429157989 14.3758314602 1.92323304191
769 1 2.40695517945 15.3873365164 0.540149852182
631 1 4.5053301176 11.9099479235 1.72006755173
1191 1 7.15554082784 11.8891621779 1.68847988067
1262 1 7.16560365441 14.5289718352 0.482103962262
1269 1 5.77355290334 13.8162952108 2.39695296307
702 1 4.59716549512 14.5198646575 0.502250699197
709 1 4.18508892224 15.6580575585 2.95703766769
1263 1 7.17693531204 15.7046799297 2.93906697482
1751 1 9.93285707319 11.8943049536 1.660348095
1822 1 9.91101287998 14.4930676323 0.386856033868
1829 1 8.5693360348 13.8048512794 2.33038936516
2389 1 11.3538542159 13.803038805 2.29257858783
2311 1 12.7509724838 11.876687015 1.6663976036
2382 1 12.7624897895 14.4432925198 0.380766196059
2949 1 14.201935802 13.7555504461 2.31017978468
2383 1 12.7833866716 15.6932150406 2.89348482517
3431 1 18.3553960461 11.7878007255 1.5479776751
2871 1 15.4914707362 11.813600514 1.63194138051
2942 1 15.5573425221 14.3981637352 0.355426359344
3502 1 18.4180258658 14.4100099297 0.485909686589
3509 1 16.9976507994 13.6334665953 2.33755138187
2943 1 15.6081809587 15.6402857303 2.8920479323
3503 2 18.1926447174 15.6499669053 2.73983921514
3991 1 21.3757831913 11.9738830496 1.52647445574
4069 1 19.6946837552 13.5036240818 2.46048644197
4622 1 21.9676763106 14.3094133103 2.90807643975
4062 1 21.0861154468 14.2249911783 0.396033636114
4551 1 25.7421863339 11.853517793 2.59564422531
5186 2 25.9519968963 12.8070926739 0.0774610475973
4626 2 23.1485508852 13.7395396227 0.817620378427
5187 2 26.1104901029 15.5438555269 1.71175454747
5182 1 27.4063141971 13.5078899266 2.10770790413
5742 1 30.0630099536 13.5570806412 2.17051099918
5747 1 28.7277495594 15.4914648265 1.51397409779
5746 1 28.7144178322 12.9803520482 0.201385192864
6302 1 32.917389056 13.6266913078 2.18732974364
6306 1 31.4916637418 13.0031155332 0.271835030872
6307 1 31.5357619057 15.5036365576 1.53139481959
6866 1 34.2175323887 12.9728235992 0.276557717298
6867 1 34.3813116724 15.5090618865 1.54538997218
6862 2 35.6533157559 13.3887469848 2.25432120464
7426 1 37.0106712958 12.9544772788 0.187555599689
7427 1 36.9061271003 15.5125995502 1.50973682687
7422 1 38.3554047734 13.6145604963 2.0908959509
7982 1 41.2444202496 13.3059203411 2.00818256329
7986 1 39.7398308613 13.036388504 0.0803586435149
7987 1 39.7043659017 15.4697539404 1.36350778417
77 2 43.7832237009 13.2711393376 1.82869324748
8605 1 43.9458593866 15.225688719 0.317081867549
8547 1 42.3307826691 15.5210034657 1.8137981465
143 1 1.66056493711 15.8882843813 3.11694114375
8543 1 0.462018976125 17.0367346675 0.772181063291
703 1 2.77206783342 17.4347560888 1.57432143525
779 1 1.06287532006 18.2157145983 3.20157274242
218 2 1.11618563705 19.2580614797 1.155945392
701 2 4.44624255774 18.8078305059 1.36309352847
1266 1 5.63611972423 16.5550125527 1.15356202524
1261 1 7.05696775471 18.4066606843 1.69709246573
1823 1 9.94591713127 15.7419456585 2.92613287368
1821 1 9.93376177001 18.3070789009 1.64408299847
1826 1 8.50712549999 16.4587905119 1.03775054297
1827 1 8.51319052277 17.670113552 3.57097434339
2386 1 11.3451444879 16.3752479404 0.995677308779
2387 1 11.3812596678 17.6238079294 3.52911521521
2381 1 12.8008123382 18.2446177772 1.61232715128
2946 1 14.2098206893 16.3390596857 0.980905304394
2947 1 14.2269799223 17.5752997929 3.51355461173
2941 1 15.6587262416 18.2333029557 1.58940638505
3501 1 18.5573622881 17.9771294969 1.47893092418
3506 1 16.9354685089 16.289361414 0.892791770908
3507 1 17.037764502 17.5452180809 3.56525238215
4063 1 22.5156894588 16.0912025836 1.39118694265
4061 1 21.1972477148 18.1600087319 1.57169412845
4066 1 20.241793255 15.8803303454 2.04068403438
4627 1 21.7935932598 16.6224237056 3.68745482111
4067 1 19.5927573241 17.5644301079 3.70609730066
4696 2 23.3343753538 19.162828309 0.551507397115
4628 1 23.2964857274 18.103125178 2.92506729969
4621 1 24.5583713502 17.2789673167 0.938850585764
5188 1 26.0282528829 17.8732453675 2.83356739682
5256 1 25.9050392882 19.2532736457 0.178354023671
4623 1 24.3891476748 15.9587097851 3.4657332728
5183 1 27.4182396729 16.1004009963 3.48432991414
5181 1 27.3351282129 17.3969159152 0.865702936806
5741 1 30.1276408457 17.410495522 0.890527487328
5743 1 30.1590756852 16.1776799225 3.41558586604
5748 1 28.7386116099 18.054467582 2.806923149
5816 1 28.7012994451 19.2978671021 0.234493981614
6301 1 32.9784767327 17.4056123035 0.869989225189
6303 1 32.9556811546 16.1512562494 3.43208784157
6308 1 31.5597484937 18.0628757201 2.78176225979
6376 1 31.5308164506 19.3234621437 0.239754397883
6936 1 34.2593835877 19.3932519938 0.220100534513
6868 1 34.286620232 18.0972007537 2.82722383602
6861 2 35.6162518739 17.5935110777 0.935011741108
7428 1 36.9942216594 18.0996662394 2.77956322026
7496 1 36.9865137233 19.4153024148 0.210550561236
6863 2 35.6370913559 16.1988086456 3.65364722507
7421 1 38.2457332947 17.4498480805 0.83036522602
7423 1 38.3152292598 16.1795616894 3.36889282165
7981 1 41.1254781965 17.5005084025 0.948734877134
7988 1 39.7220388877 18.3674879707 2.8166506067
8056 1 39.7384487522 19.3555348362 0.271575071342
7983 2 40.6481721648 16.4506891487 3.15350760967
147 1 44.8964108912 16.5135811207 2.81445086812
8610 1 43.7619061452 17.6226673616 0.919390364045
8616 1 42.463880675 19.443208 0.234671511975
8544 1 42.7015328271 17.9804910257 2.9959752233
220 1 1.39003651681 22.2976262574 3.10382195215
216 1 2.98888123203 22.7335102874 1.06594361987
228 1 2.8980362533 20.3755709044 2.23440888591
776 1 1.17505034394 21.4260065151 0.280580489452
772 1 4.31872817107 20.9634780312 0.319751538316
773 1 4.36594721014 22.4176068541 2.95631425121
1332 1 7.23524223035 20.9096364862 0.322465120759
1333 1 7.28073961365 22.2761977908 2.94022789591
1336 1 5.82763718228 22.7655415143 1.04290109258
1339 1 5.80985872642 20.5532266611 2.20813242759
1892 1 9.96987059984 20.8171030221 0.355854349888
1893 1 10.0222692679 22.096893804 2.91126005327
1896 1 8.62296222337 22.7749253762 1.00095619003
1899 1 8.53562145018 20.2350641678 2.29170180403
2459 1 11.3810352408 20.1543833116 2.24018182672
2456 1 11.3929854979 22.7019642804 0.951617133351
2452 1 12.812667043 20.7886238679 0.316117921688
2453 2 12.8079191291 21.9872913115 2.7534335116
3016 1 14.2081080085 22.6922605079 0.924234964749
3019 1 14.2352431007 20.1160387165 2.19392076172
3012 1 15.6593560447 20.8089474264 0.267350698857
3013 1 15.5634054174 22.0316581637 2.81966284385
3573 1 18.344131195 22.1482446108 2.85046070255
3576 1 17.005504037 22.7267341397 0.901991798486
3579 1 17.0703443395 20.1355585854 2.12223527247
3572 1 18.6094804498 20.977634314 0.27170322812
4697 1 22.4890618733 20.5661676667 2.08169923458
4139 1 19.713178846 19.9506554104 2.12770985725
4136 1 20.6369080168 22.0405404916 2.2294482919
4132 1 21.3848454932 20.5616686393 0.0596098569997
4766 1 20.4548560663 22.8355614583 0.0309268446118
4691 1 22.9107141945 22.7742288006 1.34788237341
4692 1 24.8312849099 19.8168980593 2.16552182917
5257 1 25.938401733 21.8530396388 1.43535699726
4693 1 24.4325667004 22.0006070708 3.14325907652
5252 1 27.3032590834 19.9123078285 2.1604226595
5253 1 27.2862194865 22.4777963488 3.42247089983
5812 1 30.1244443169 19.960284088 2.15334040691
5813 1 30.0616997468 22.5663558425 3.43520580871
5817 1 28.7161567577 21.835575793 1.52643402965
6372 1 32.9016479488 20.0116327107 2.15462612216
6373 1 32.8630286404 22.5930738107 3.426365369
6377 1 31.4734623589 21.9195898851 1.52168262723
6937 1 34.2598889463 21.9573603325 1.50716224514
6932 1 35.6349077298 20.0361824034 2.15162959778
6933 1 35.6343209505 22.6387741003 3.43506206761
7497 1 37.0103783608 21.9955082136 1.51407890535
8052 1 41.2210030276 20.1433247553 2.10499536261
7492 1 38.3216958221 20.0856992601 2.14119816827
7493 1 38.3911144927 22.6256739099 3.48116605929
8053 1 41.1189215589 22.4274393332 3.51315050093
8057 1 39.7809711423 21.9897447055 1.54990574996
8548 2 43.7988390058 20.050934937 1.97933517905
8617 1 42.5436975252 22.0379269615 1.4482554242
8604 1 44.802946477 22.0690028296 2.48724840672
280 1 0.821789317907 23.624984167 1.19189736448
211 1 1.09416178486 26.0296793001 2.37605278371
849 1 3.30675848665 26.8587785131 2.48492466321
777 1 2.79053933015 24.3224909219 3.01615369984
219 1 2.88183153185 25.2416101373 0.180510441881
288 1 0.108407418772 25.6032391735 0.157126306089
282 2 1.95220912599 27.2139391149 0.700082276339
771 2 4.55866287971 24.6534134885 1.5478863993
1331 1 7.20938636238 24.6913208738 1.71006116222
1409 1 5.83548410015 26.609699207 2.34044675233
842 1 4.45687371697 27.2370862745 0.40358918042
1402 1 7.21364550737 27.1914389752 0.374300616212
1337 1 5.81911517574 24.1652352547 3.68595628152
1891 1 10.0489809608 24.6217055724 1.64599097782
1969 1 8.68383064886 26.5727765844 2.23858314358
1897 1 8.67793502557 24.0517927939 3.57521890417
1962 1 10.0425466416 27.1682552951 0.335713762828
2529 1 11.4286277245 26.5220630317 2.26267202397
2457 1 11.4394434665 23.9504650746 3.55138747542
2451 1 12.792377041 24.5837415904 1.61910892836
3089 1 14.163781397 26.5071314289 2.25873720951
3017 1 14.156658162 23.9339203867 3.52349805064
2522 1 12.798218102 27.1547272346 0.330966033501
3011 1 15.5325262244 24.5975030714 1.61238670916
3571 2 18.1163161599 24.7240802479 1.79348570386
3649 1 16.9140610805 26.5594231433 2.25779959865
3577 1 16.8562638707 23.9527664027 3.55741080444
3082 1 15.5271635721 27.1450364994 0.330490267291
3642 1 18.3139935538 27.1777519724 0.343202978229
4131 2 21.2354817204 24.3986914451 1.5825520963
4209 1 19.9192488679 26.591655148 2.19298103332
4202 1 22.5930424494 26.8156948177 1.50407059612
4208 2 20.7676787815 27.106014735 0.0901704380626
5329 2 24.6058217891 25.943255669 1.84735874414
5258 1 25.7359986144 24.0909144015 2.60757971096
5326 1 25.7902555113 25.3172027373 0.0485942485511
4698 2 23.4685898179 23.8340232523 3.72371465428
5251 1 27.42004373 23.7470795875 0.892887447733
5811 1 30.0580442186 23.8281318638 0.883876054584
5322 1 27.1159482682 26.3615573344 2.12326377287
5818 1 28.6241137539 24.4804907555 2.78744433985
5882 1 29.9937559006 26.4088707056 2.17215529695
5886 1 28.6130270053 25.7555137282 0.266971448382
6371 1 32.8405689485 23.863843597 0.872655554137
6378 1 31.4351310116 24.5019231788 2.79307033396
6442 1 32.8125348006 26.4268729625 2.1484483971
6446 1 31.4163962954 25.7710689422 0.239062728875
6938 1 34.2377783593 24.5323895582 2.78921524184
7006 1 34.230912266 25.7858920299 0.22455708088
6931 1 35.6479353011 23.8988882118 0.87933246813
7002 1 35.6546353878 26.4206467748 2.13289119536
7498 1 37.0543325773 24.5420401716 2.80916508683
7566 1 37.0380962957 25.7835480116 0.195883654152
8051 1 41.2490077353 23.8968760641 0.936494154872
7491 1 38.4355284769 23.8993800839 0.903216429783
7562 2 38.4550667742 26.4505373854 2.02328949914
8058 1 39.8459161053 24.450042032 2.84160083905
8122 1 41.2208677326 26.3037898392 2.21486646866
8126 1 39.8207540007 25.7690390487 0.218965879936
8613 1 45.3391702648 24.4190507345 3.03589417987
8611 2 44.0994565731 23.8365621255 1.1688108973
8618 1 42.7717661676 24.0458819553 3.1605363189
8682 1 43.9475949933 26.1994286673 2.12000843996
8686 2 42.2558140823 26.0174196336 0.208881017983
286 2 0.982966869534 30.1460494128 1.20899699444
846 1 3.05420225983 29.2313356856 1.12869313209
283 1 1.21956776874 28.6450329577 3.39629969624
847 1 3.0830547657 30.5924199024 3.54248579559
843 2 4.7291413799 28.7761817298 2.83766887896
1406 1 5.89552643275 29.1600423605 0.924343634661
1401 1 7.42138477265 31.0670797546 1.62793692329
1407 1 6.07334257161 30.4754234023 3.54813953757
841 1 4.60327641579 31.0554203875 1.67840649629
1403 1 7.30484858979 28.4826128167 2.9196784916
1961 2 10.0669884271 30.8392266697 1.54370920674
1963 1 10.082141802 28.4813480267 2.88050310395
1966 1 8.62675026013 29.0688299589 0.972062161972
1967 1 8.74720233675 30.3989157326 3.55545122491
2527 1 11.4277823759 30.3899757834 3.53103428283
2526 1 11.4577244425 29.0744862016 0.95460855064
2521 1 12.781749486 31.0369566905 1.61701583441
2523 1 12.7944994081 28.4513087536 2.90242154567
3086 1 14.1631267631 29.0931180407 0.980397413895
3087 1 14.1744907267 30.3626644604 3.54426401951
3081 1 15.5657069419 30.9966658672 1.64029569078
3083 1 15.5454087328 28.4359920741 2.90881453299
3643 1 18.3394637806 28.387136508 2.80384181058
3646 1 16.9046521154 29.0565839504 0.981703401924
3647 1 16.9932193693 30.2981023187 3.54079439578
3641 1 18.2863808673 30.9575442372 1.60449021638
4203 1 21.6785122784 28.8525611243 2.78864875978
4206 1 19.7626354359 29.1360471946 0.913006563968
4836 2 21.8352753636 30.2713928158 0.811214116679
4207 2 19.7014339756 30.0618986381 3.42896294726
4768 1 23.2072505784 30.7865564538 2.83912703783
4761 1 23.7579429427 29.2473721005 0.931544006398
5327 2 26.1055725395 28.5727547286 1.32568984192
4763 1 24.3770472731 28.1736390629 3.02729269363
5328 1 25.5069625121 30.6410910958 1.90117119001
5323 1 27.1047875463 29.1062068803 3.4765774981
5321 1 27.4490480374 30.3132021698 0.725615245249
5881 1 30.0013156748 30.242117647 0.839826909498
5883 1 29.970935629 28.9802539939 3.44114386391
5887 1 28.6124518105 28.3153379265 1.55090929606
5888 1 28.6173524032 30.9095474716 2.78201148109
6441 1 32.8240888686 30.2271397396 0.836762720414
6443 1 32.8126074989 28.966307835 3.4148014243
6447 1 31.3986626382 28.3304491577 1.50921052755
6448 1 31.4121515991 30.8700393759 2.75538247619
7007 1 34.2311724431 28.3195049202 1.48697200768
7008 1 34.239310999 30.8539925224 2.7463410784
7001 1 35.6459443145 30.2202327434 0.823058156344
7003 1 35.6516790178 28.9338099429 3.38982881778
7567 1 37.0422613816 28.3262279099 1.45651679563
7568 1 37.0491254973 30.8500764199 2.72892587417
7561 1 38.4601395755 30.2313158645 0.804876640188
7563 1 38.4330914784 28.9192254727 3.37239253442
8121 1 41.3090814456 30.218463018 0.775578618002
8123 1 41.2083264176 28.8352663101 3.38785341866
8127 1 39.8333724907 28.3437464565 1.48783849643
8128 1 39.8734480139 30.8487264284 2.68454920816
289 1 45.4384559582 27.968210605 1.54434073183
8681 1 44.1365473088 30.0669440887 0.884969423268
8687 1 42.6059690046 28.2449926105 1.4576810839
8688 1 42.5711859734 30.7158049424 2.74302849885
8683 1 43.9691522559 28.6912728902 3.37046292392
281 1 1.11169971241 32.3150686088 2.22667358811
353 1 1.84955500969 34.5759851854 2.86554912037
919 1 3.35091765752 32.9655455049 2.22321855945
918 1 1.58930212502 33.8173298841 0.337462818753
344 1 2.8233907784 31.7051728135 0.0303486260947
912 1 4.43066702407 33.6394341947 0.246577708668
913 1 4.61550720285 34.9410022138 2.89181675769
1472 1 7.39894478677 33.5973139075 0.37648799323
1473 1 7.44089765593 34.8536327755 2.87463271194
1479 1 6.00368689862 32.9842875499 2.20569680442
2032 2 10.0708119437 33.7158660967 0.231610632838
2033 1 10.1646801638 34.9222542752 2.91012631743
2039 1 8.84689924607 32.94513673 2.2494725492
2599 1 11.377873786 32.928970434 2.21968328819
2592 1 12.7966334715 33.6093361462 0.352981456501
2593 1 12.7920223862 34.8624818487 2.80643479549
3159 1 14.1978389094 32.9553996609 2.26312933915
3152 1 15.5960498614 33.5813026367 0.374430493354
3153 1 15.6655206456 34.862187476 2.83697025695
3712 1 18.2784419982 33.4750234984 0.378128070443
3719 1 16.9707051584 32.8822295241 2.32040485554
3713 1 18.3192303037 34.8139880835 2.90955636691
4279 2 19.4915605858 32.9721694028 2.32203393119
4839 2 22.5202335939 32.8808920573 2.25618958037
4272 1 21.1307227029 32.8822972752 0.339399994979
4837 1 19.9700444639 35.0628390218 1.26583413626
4273 1 21.9860625632 34.8716541569 3.30474547603
4824 1 23.437484899 31.9456014863 0.233387445662
4838 1 22.9509164519 34.7864509796 1.04414711956
4832 1 24.730717062 32.8872234434 2.07458123916
5396 1 25.959085152 32.2196263816 0.106146489964
5397 1 25.864969512 34.8124603211 1.42874273097
5392 1 27.2250902329 32.77154972 2.12514345628
5952 1 30.0497853617 32.7867904207 2.07668895437
5956 1 28.6524151594 32.225644577 0.13592099324
5957 1 28.630136387 34.6815705784 1.40328513046
5953 2 30.0791649112 35.2846033274 3.1026131995
5393 1 27.3151046853 35.3534358715 3.35897181174
6512 1 32.8410231257 32.7611462297 2.0869311441
6516 1 31.4320186452 32.1410652048 0.167890609567
6517 1 31.4826460083 34.6753141672 1.38550445683
6513 1 32.8345614871 35.3268286912 3.3326661583
7077 1 34.2421509304 34.681279984 1.44063694894
7076 1 34.2459454699 32.131126443 0.175806052407
7072 1 35.6456086434 32.7707215838 2.09440203104
7636 1 37.055118516 32.1396895726 0.187161314234
7637 1 37.0591249783 34.692333562 1.46210113231
7073 1 35.6421005413 35.3250504774 3.35927405554
7632 1 38.4629579528 32.7651740251 2.09087365629
8192 1 41.4058469166 32.8644999487 2.10775560649
8197 1 39.7952502456 34.7025939456 1.47452313518
8196 1 39.9306402676 32.1604547202 0.228692183407
8193 2 41.1987197166 35.2478557972 3.35798992567
7633 1 38.4498524354 35.3555133371 3.38343775441
8753 1 45.3438298368 34.2606363629 1.73691293865
8752 2 44.1788565575 32.2189851906 2.32051040038
8757 2 43.1178551912 34.6908998877 0.842995740202
8756 1 42.8143333731 32.1794026536 0.229620591248
358 1 45.5902402542 31.9335584223 0.222705933392
916 1 3.2401375529 35.5138560325 1.0871404943
356 1 0.293280839721 36.2703807448 3.30187806457
351 1 0.782971365495 38.4616588439 2.12118735163
917 1 2.73400096679 36.9997801631 3.13628706712
414 2 1.0843732354 36.3276055329 1.252941321
911 1 4.61539014817 37.4271259269 1.64556054535
1471 1 7.344117439 37.446180127 1.60370115969
1476 1 5.95399841302 35.4734171743 0.978549065446
1477 1 6.0820256209 36.7806074558 3.49962276181
2031 1 10.1188284397 37.5242682742 1.57699966616
2036 1 8.74256450015 35.5557314945 0.985817019139
2037 1 8.81011755073 36.8334902065 3.49990088611
2596 1 11.4469589573 35.5673401406 0.944988247286
2597 1 11.5421821495 36.8820631365 3.46621570485
2591 1 12.8137905365 37.5119631562 1.51325086756
3156 1 14.2512810564 35.5639155755 0.96247253963
3157 1 14.2407501157 36.7897353267 3.28008815918
3716 1 17.0491421144 35.4842216615 0.947277703232
3151 1 15.7708090824 37.4868923362 1.5526863162
3711 1 18.6261274724 37.0510737293 1.60179555765
3717 1 17.2059412575 36.9433267851 3.54453726196
3225 2 15.6558485743 38.8514402816 3.67117996688
4276 1 21.5015630672 36.8735585903 1.0187313479
4277 1 20.3266851586 36.5061948389 3.54295522386
4349 2 19.2899225945 38.5977674044 3.18020825878
4271 1 21.4795948727 39.0565634444 2.5768655867
4348 1 19.8387033102 38.6972660203 0.431552470193
4906 1 22.8160495904 38.7569493956 0.260553395989
4833 1 24.4814686606 35.3622032486 3.39043913421
4902 1 22.9546716788 37.1877684632 2.82304692493
4831 1 24.4125369614 36.7404281355 0.850651688528
5398 1 25.9088878809 37.2535528574 2.7366888657
5466 1 25.9503686027 38.6150590641 0.318004517301
4907 1 24.440074532 39.1073862868 2.18040399955
5391 1 27.2960452215 36.6360900445 0.805675049743
5462 1 27.3233249098 39.1910379393 2.14606320784
5951 1 30.0663489692 36.6192075159 0.807238878477
5958 1 28.7066994098 37.2578297882 2.7218648574
6022 1 30.0819513936 39.1662896774 2.11079348947
6026 1 28.653070127 38.5581043705 0.186452336537
6511 1 32.8517218483 36.6109996772 0.803399768184
6518 1 31.4645082657 37.2502098337 2.71810733808
6582 1 32.8456225497 39.1593625225 2.10730138708
6586 1 31.4465009703 38.5315456211 0.188107505079
7078 1 34.2411718383 37.2393830532 2.72850756073
7146 1 34.2418025376 38.5224257463 0.193559410558
7071 1 35.649097105 36.6036599157 0.826371437859
7142 1 35.6242073093 39.1699812421 2.1240678065
7638 1 37.0367789451 37.2549651474 2.75161321918
7706 1 37.0407772156 38.5340149828 0.220172217609
7631 1 38.4706310334 36.6323883042 0.866385548915
7702 1 38.4272358845 39.1747242842 2.13307346976
8191 1 41.3815542655 36.5895133741 0.911036122141
8198 1 39.8620482301 37.2776167499 2.75873843167
8266 1 39.8766144773 38.5327033175 0.242387343531
8262 1 41.2114892413 39.2566285942 2.11767496474
8761 1 43.6725676696 35.4345000836 3.23403933869
8751 1 44.2487608307 36.849007271 1.29719424023
8758 1 42.4779578727 37.4949497056 2.91887303601
8826 1 42.6530731178 38.5716861989 0.125262865953
8829 1 44.0139579586 39.2102811874 1.92480107266
989 1 3.11777483313 39.294540423 2.38025453848
423 1 1.54923063036 41.1022796914 3.06748726256
986 1 2.96846541866 41.8199553245 1.18680760057
422 2 1.85780665142 39.8873001654 0.426898140831
8885 1 0.0147267701844 41.0688054703 1.20730026629
982 1 4.42583727218 39.8985215821 0.42782264783
983 1 4.46225950896 41.2351525212 2.95029880084
1542 1 7.24976651206 39.9906044522 0.365729505064
1543 1 7.27805165735 41.2794243258 2.89487788548
1546 1 5.81067364619 41.8572216645 1.02861177288
1549 1 5.92806028354 39.356450733 2.31265209312
1547 1 5.83614222249 43.104564243 3.66433536027
2102 2 9.89225311367 39.947647566 0.204575824643
2103 2 9.92536875556 41.372611348 2.99781228229
2106 1 8.64005785679 41.9066521636 1.00822268701
2109 1 8.70791662548 39.3851817543 2.24758914264
2107 1 8.6095171326 43.2049843429 3.62016475343
2666 1 11.4286591289 41.8053101301 1.02452960117
3229 1 14.2199756729 39.3824011835 2.08197885411
2669 1 11.4905864202 39.4882482421 2.17253872392
2662 2 12.9781075821 39.9288272652 0.127579818733