ITEM: TIMESTEP
14000
ITEM: NUMBER OF ATOMS
8960
ITEM: BOX BOUNDS pp pp pp
0.0 45.68
0.0 51.0717926061
0.0 44.6878185303
ITEM: ATOMS id type x y z
569 1 2.88484822203 1.01316947219 2.33462387522
2 1 1.49600301074 1.96282784875 0.316401259987
566 1 3.0403263286 3.70101881947 0.988242005442
3 1 1.88136771998 3.1755299712 3.03229961187
8465 2 0.345550942851 1.65036250091 2.66023623588
8401 1 0.171321474017 3.74045180076 1.38367777908
562 1 4.32768943074 1.68817109146 0.366512266937
563 1 4.43588506921 3.03657193483 2.88102898309
1122 1 7.23257053035 1.73007433221 0.347741566346
1123 1 7.22794307286 3.05370356202 2.88838337064
1126 1 5.82428287259 3.63207311438 0.950634119246
1129 1 5.8120886256 1.12621062202 2.22054395766
1682 1 10.0570595125 1.76487473411 0.344434657124
1683 1 10.0454534317 3.08011840042 2.90796973381
1686 1 8.61429883735 3.6836991454 0.98555008849
1689 1 8.6713318327 1.17119852851 2.24588782624
2246 1 11.3645735836 3.71509298279 0.980811119508
2249 1 11.4526040494 1.18657903488 2.23756278356
2242 2 12.7521771606 1.84756336581 0.10636337736
2243 2 12.7355492391 3.11120002429 2.91467702414
2809 1 14.060113385 1.20708043868 2.19160256686
2806 1 14.0822651742 3.6940395413 0.987119144594
2802 1 15.4516475606 1.81421761949 0.301221733682
2803 1 15.4271783934 3.06990525484 2.94188470661
3362 1 18.8222223516 1.99719938941 0.887493001383
3363 1 18.4947980939 3.79860423391 2.9170674374
3369 1 16.8697666336 1.27725776288 2.22852416816
3366 1 16.8163223226 3.67217007513 1.06470029629
3929 2 18.8776845637 1.6770292819 3.29805852944
4489 1 22.4013086349 0.828346122977 2.93552588651
4411 2 21.0893528413 0.583618415023 0.716974852895
3926 2 20.5541446558 3.81562150716 1.51978297007
3923 2 23.5537545801 2.51756647148 1.47502105849
4482 1 24.7242682369 0.778596235602 2.1735540746
5047 1 25.9015707789 2.7957570298 1.53038561584
4483 1 24.2400723511 3.38541635472 3.48295142997
4486 1 23.3038484196 0.303770164935 0.196919975948
5046 1 25.8269004126 0.116818875228 0.0183700213502
5042 1 27.1945203258 0.794676607115 2.14616724399
5043 1 27.2145116545 3.31645963352 3.48611106121
5602 1 29.9789994903 0.819105785789 2.1555533137
5603 1 30.0368124234 3.3443560995 3.40336062243
5607 1 28.5724304825 2.77147479059 1.52411370963
5606 1 28.5689304418 0.11420727407 0.258770141001
6162 1 32.8166350283 0.800738744038 2.18071714922
6163 1 32.7954934259 3.33684254886 3.42307587699
6167 1 31.4089651551 2.67177253112 1.48775591059
6166 1 31.4249621173 0.173527367325 0.28795561073
6727 1 34.2386438922 2.69874879247 1.57037795036
6726 1 34.2497902978 0.135048787975 0.300050925081
6722 1 35.6563207734 0.779064929732 2.19102508388
6723 1 35.6563531174 3.31998878477 3.45831296283
7287 1 37.0538485212 2.68684940747 1.55409496417
7286 1 37.0476737952 0.142339053229 0.268098521899
7282 1 38.4890450072 0.757030842893 2.16241390253
7283 1 38.4823190839 3.30952507652 3.45996754822
7842 1 41.2599168587 0.815432877138 2.10589663275
7843 1 41.3046367614 3.37153119761 3.35327531116
7847 1 39.8239954938 2.66405708161 1.52324748769
7846 1 39.8774086961 0.132415125204 0.180087721433
8407 1 42.7664874466 2.69282235478 1.30249075082
8402 1 43.9060665805 0.593210373506 2.5226129473
8406 1 42.6353981165 0.0776672716806 0.333801583524
8 1 44.7637934914 1.4625575819 0.55999331027
8403 1 44.1794723069 3.46555884574 3.1260777549
6 1 1.68073553266 5.66233394851 1.69695131511
639 1 3.22140348692 7.60366157434 1.99935930361
567 1 3.14225730108 5.04997835889 3.57974009689
75 2 2.01095170204 7.15783616066 3.71885155224
561 1 4.50626476443 5.57002482113 1.5629831533
1121 1 7.19636944103 5.60156028824 1.58827525534
1199 1 5.79836004674 7.56558195229 2.19250311844
1127 1 5.84541728788 4.9864738975 3.51676401153
1681 1 9.98428877936 5.61143607635 1.62691429501
1759 2 8.56217879574 7.54941981265 2.23105195416
1687 1 8.60901049508 4.98242701875 3.53481161783
2247 1 11.3683901329 5.02249342812 3.57242032057
2319 1 11.3443275364 7.54565570417 2.27578701493
2241 1 12.7247280983 5.6213174224 1.64764197745
2879 1 14.1113001817 7.55772699103 2.29849173144
2807 1 14.0621717128 5.00310937744 3.61143159632
2801 1 15.3720257778 5.59435826921 1.65484790619
3361 2 18.0057272663 5.75008058633 1.81842801838
3439 1 16.711822324 7.49602314955 2.33484306698
3367 1 16.5996195328 5.00501173709 3.61106138369
3921 1 21.7902268247 5.67705011364 1.58504383995
4559 2 20.9226837287 7.25654175434 3.0353547628
4481 1 24.1403730123 4.60068840599 0.718162054342
4552 2 23.7945575104 5.80974268789 2.83445597535
5048 1 25.9210231646 5.11462293156 2.90931627727
5116 1 25.2518079796 6.75003472447 1.19516089209
5041 1 26.94892324 4.80700406192 0.78803390552
5112 1 27.3320733922 7.13386731165 2.16488578048
5601 2 30.131875971 4.58821441229 0.916033169429
5608 1 28.6025419694 5.20085655516 2.76671634751
5672 2 29.8840847904 7.2979821479 2.2735847405
5676 1 28.712197307 6.45680087125 0.287440279973
6161 1 32.8186285901 4.58864824161 0.909111145799
6168 1 31.4187914834 5.28537122012 2.79041115713
6232 2 32.974238264 7.14124459381 2.17786974439
6236 1 31.4298419485 6.50891874252 0.328727749772
6796 1 34.2323843204 6.49096813025 0.246589239863
6728 1 34.2346906597 5.20357631354 2.81292378378
6721 1 35.6368706549 4.59630305427 0.916342345132
6792 1 35.6360927089 7.12651792964 2.18203350293
7288 1 37.0606359479 5.23535513817 2.81606022107
7356 1 37.0059739343 6.51834995949 0.254276577192
7281 1 38.4432299838 4.61158396519 0.893817427676
7352 1 38.4593088987 7.16883232574 2.1598813904
7848 1 39.8121889971 5.24546613243 2.83034439968
7912 1 41.1690803658 7.18894313168 2.15016022175
7916 1 39.7752608246 6.52846279355 0.219980070572
7841 1 41.13581329 4.52161468574 0.92321753561
8408 1 42.5815044599 5.33684942838 2.81330129979
8472 1 43.7592718846 4.85364243025 0.800355672188
8404 2 44.8837875026 5.88394897045 2.36394223894
8476 2 42.1979980435 6.33547752764 0.215283006013
76 1 44.1384841208 7.68484120789 0.622382602991
72 1 1.30712611792 8.19505814212 0.319652906416
73 1 1.73638557699 9.63009631185 2.82544734826
636 2 3.01052411797 9.80773915843 0.733311481021
632 1 4.46012093081 8.12446757837 0.161819120319
633 1 4.41758128229 9.59072444835 2.80663221056
1192 1 7.15621418436 8.17619921309 0.260201014728
1193 1 7.14180111074 9.48777460628 2.85105846407
1196 1 5.73208790163 10.0979090559 0.856132122495
1197 1 5.77768540636 11.4223744009 3.52520366446
1752 1 9.95638240948 8.17739997681 0.333058736541
1753 1 9.94789197046 9.46315575836 2.90281024487
1756 1 8.52905937637 10.0664845551 0.969384519836
1757 1 8.55519434093 11.3663671545 3.53226428496
2317 1 11.3448642195 11.3661943764 3.56582574035
2316 1 11.3588869505 10.0675749209 1.02724803255
2312 1 12.7199837121 8.16554294552 0.348583359317
2313 1 12.746335087 9.47025322331 2.94107593468
2876 1 14.1356322077 10.0809675953 1.03106834753
2877 1 14.2017302831 11.3718582429 3.61871359745
2872 1 15.4581867701 8.15892969161 0.343070012852
2873 1 15.5428192102 9.48804391946 2.96967934676
3432 1 18.3223032978 8.00679237907 0.502944888706
3433 2 18.1814070886 9.12097236095 2.82290767255
3436 1 16.8981612458 9.98994860609 1.02792088029
3437 1 17.0817604171 11.3285580721 3.5926995563
3999 1 20.9422236335 8.05747386956 0.9349822575
3993 1 21.9100932009 9.76061783933 2.82845878094
3996 1 19.7324733953 10.1178730645 1.13295786734
3997 1 19.719504815 11.0934702785 3.43339596975
3992 1 22.5225160678 9.55709279643 0.469319862031
3991 1 21.7190656568 11.7613365008 1.56279949588
4557 1 23.3675686307 8.00331461733 1.96291218282
4551 1 24.399024404 10.8743857038 1.12592368469
5117 1 25.7932706415 8.97265742566 1.49289091969
4554 1 24.5591230757 9.60609877566 3.47421494245
5118 2 23.6715626179 11.6633578589 3.21727055815
5111 1 27.2060153591 10.815958955 0.852195204962
5113 1 27.1262443335 9.65841263193 3.44944142659
5671 1 30.022865279 10.9647158645 0.902993513929
5673 1 30.0169482305 9.70003564737 3.43274022304
5677 1 28.5979568598 9.07422860247 1.52732355119
5678 1 28.6238951106 11.6131211497 2.75441930261
6231 1 32.8271074068 10.9347994543 0.90028384258
6233 1 32.8416050451 9.67444427471 3.43167928198
6237 1 31.4389232468 9.03322505088 1.53956939717
6238 1 31.4569266159 11.5928953581 2.79461963425
6798 1 34.2154644351 11.5823481886 2.81167647943
6797 1 34.2460254374 9.05541457225 1.52038629324
6791 1 35.6102120427 10.9593537751 0.886775104738
6793 1 35.6279307623 9.68924498783 3.44704629959
7357 1 36.9876116083 9.03401046601 1.52463552269
7358 1 37.0054887648 11.5941372325 2.81437245271
7351 1 38.3553648616 10.9217785634 0.878093832604
7353 1 38.405906143 9.68300005572 3.4276563256
7911 1 41.2698963101 11.2202215139 0.800785992997
7917 1 39.8066276878 9.11505944457 1.50621742917
7918 1 39.6814385085 11.605240694 2.77686961273
7913 1 41.2786791607 9.81866695507 3.46387359476
8477 2 42.2007520009 9.20582039034 1.45321836576
8473 2 45.3819727249 9.04545585409 2.17987265859
7914 2 43.3565787934 11.1764343066 3.64213682276
8474 1 44.9308823602 11.4375437305 1.77713114552
71 2 1.2422358302 12.1553563678 2.35898793686
706 1 2.94244318549 14.0012680841 2.20839083844
141 1 0.214642014971 14.1529445601 1.78350061396
769 1 2.21382438459 15.0316018361 0.14429511482
631 1 4.35327774521 11.9758405131 1.61397499181
1191 1 7.14332800597 11.9790247103 1.5903085345
1262 1 7.11048385599 14.5209426524 0.319390048443
1269 1 5.80437855559 13.8594993321 2.30969959496
702 1 4.60056588436 14.6380554411 0.3986743105
1751 1 9.93857280592 11.9892214728 1.62787388312
1822 1 9.9348756719 14.5117299606 0.339115474712
1829 1 8.52997480208 13.9142592939 2.2478481714
2389 1 11.3480406272 13.8966508355 2.27320081951
2311 1 12.7557502482 11.9825285331 1.67720805775
2382 1 12.7672978125 14.5071841996 0.372153507242
2949 1 14.179801356 13.8759967171 2.32258976791
2871 1 15.5949174838 11.9657583554 1.71364724446
2942 1 15.5264742953 14.4830981424 0.425531454109
3431 2 18.1739822269 11.9973806412 1.49210500061
3502 1 18.3730382217 14.4137401616 0.445316064761
3509 1 17.0226626009 13.8918980096 2.34926393666
4069 1 20.0634561267 13.4478223907 2.5332315387
4062 1 21.127958517 14.255706979 0.541558882848
4622 1 22.7780077698 13.8703530349 2.27505522375
5182 2 26.4886482324 12.572692737 1.90787102512
5187 2 25.8060244892 15.6687592813 1.47377392854
4626 2 23.239413844 12.9265052797 0.0107669210997
5742 1 30.09462662 13.5170989602 2.18578094687
5747 2 28.8340598459 15.4739949497 1.41623502469
5746 1 28.5231599799 12.8919958279 0.416768732247
6302 1 32.8756098762 13.5338881207 2.1761253811
6306 1 31.4442803724 12.864120879 0.290659648011
6307 1 31.4818291074 15.4318872548 1.53818382327
6866 1 34.2052714094 12.8689586968 0.249946312922
6867 1 34.282533105 15.4507249122 1.56884753682
6862 2 35.6113142262 13.4044357879 2.11783615735
7426 1 36.9930744201 12.8819153462 0.240502727115
7427 1 36.9177098252 15.4697010054 1.56156868046
7422 1 38.3045773496 13.5830102293 2.20950535982
7982 1 40.9240595104 13.5252432629 2.28213174386
7986 1 39.5670255093 12.827107038 0.306046020097
7987 1 39.7393491527 15.4872382055 1.54651296197
77 1 43.1491115614 13.0379569591 1.9979628205
8547 2 42.2825051197 15.4440317495 1.61810155687
147 1 44.2082852435 15.5077251139 2.70873437061
8605 1 43.9280620599 14.5942362394 0.255089293917
143 1 1.4910768989 15.9886531899 2.82364259972
8543 1 0.358650102145 16.5903290704 0.788020754543
213 1 1.23387646486 18.7883318308 2.42347748165
703 1 3.07925407069 16.9418964896 1.25400658888
710 1 3.07893555398 17.6938667193 3.62209014381
701 2 3.66809654465 19.4777002788 2.46879206959
709 1 4.3993772689 15.7654933604 2.93535047554
1263 1 7.16046249419 15.8508720281 2.92330253542
1266 2 5.77599714677 16.5882836332 1.11468208777
1261 1 7.22428763945 18.3644505141 1.58884862861
1267 1 5.66743534326 17.840883854 3.48291146544
1821 1 9.91709120822 18.3508956237 1.5648754303
1823 1 9.94409091624 15.8204326937 2.88690820665
1826 1 8.52744787982 16.4218370736 0.95223530751
1827 1 8.56785184163 17.7541775291 3.53268587639
2386 1 11.3364419644 16.4232323325 0.965046474058
2387 1 11.3474819304 17.7338347987 3.50701047125
2381 1 12.7261904833 18.3372471262 1.58301732062
2383 1 12.7544835256 15.8090076648 2.89654708928
2946 1 14.1692484247 16.438684651 0.999523328938
2947 1 14.1469555134 17.7515593281 3.494729824
2941 1 15.5278769641 18.4319475139 1.5664548525
2943 1 15.5427320719 15.8065063727 2.93658704913
3501 1 18.3584640781 18.3610074481 1.58169050802
3503 2 18.0447584143 16.103293691 2.87068887354
3506 1 16.8746135815 16.4220435547 0.989931755825
3507 1 16.844551705 17.8623632771 3.51509934788
4063 1 22.416234635 16.2515155462 1.12734102566
4627 1 21.5430192705 15.8319651354 3.26640416357
4061 1 21.0694798844 18.2436167879 1.62628550466
4066 1 19.7923696655 16.1607556231 1.27308137311
4067 1 19.7415687055 17.7511247251 3.486737744
4696 1 22.8554258152 18.8871887018 0.111062853189
4628 1 22.9114904552 17.9877716094 3.04913466326
4621 1 24.4794313601 17.4084634522 0.961456015256
5188 1 25.895845383 17.8576603728 2.83488350092
5256 1 25.8232124832 19.2902386394 0.245433591062
4623 1 24.3537724434 15.9189942714 3.31351385882
5183 1 27.3095167058 15.9406415532 3.40586022513
5181 1 27.2614709272 17.3486732956 0.874804030796
5741 1 30.0877580492 17.3549104589 0.874100234192
5743 1 30.0933972556 16.0604341291 3.43049652776
5748 1 28.6578857358 17.9028945233 2.77957383296
5816 1 28.6369831578 19.2100726423 0.222346554862
6301 1 32.8570042047 17.3363588248 0.89201686279
6303 1 32.8729626975 16.0835001126 3.44200961827
6308 1 31.4459385915 17.9836559597 2.79555013797
6376 1 31.4291764799 19.2603140117 0.23901564914
6868 1 34.2283568153 17.9950299465 2.78414420089
6936 1 34.1826567388 19.2890483961 0.219021281393
6861 2 35.5903113716 17.4205877386 0.760569325618
7428 1 36.963878983 17.9893396263 2.76695333068
7496 1 36.9958994312 19.2715828993 0.202038531239
6863 2 35.6024679078 16.1595189914 3.64220198264
7983 1 41.2458869633 16.097086279 3.56455513693
7421 1 38.3561654795 17.3382320688 0.869695814129
7423 1 38.3430304599 16.1026159158 3.44471685817
7981 1 41.182995063 17.4103734358 0.874360287904
7988 1 39.7708438448 17.9753433235 2.80490450377
8056 1 39.7829126073 19.1977236765 0.193191315481
218 1 45.2274506455 18.8191130682 0.287596679116
8610 1 43.6684728963 17.2453785349 0.814807068002
8544 1 42.6262621597 17.9616285697 2.81479278521
8616 1 42.752722477 19.5045962304 0.241189851289
779 1 45.07144806 17.6071691534 3.09456349325
776 2 0.884731618622 20.4280942209 0.854516888829
220 1 0.781670330114 21.7938892976 2.67443179529
216 2 3.02584282694 22.6249519527 1.34950966737
772 1 4.35925965665 20.7541861479 0.344401047354
773 1 4.29384812849 21.8565613765 3.07767559142
1332 1 7.09201292613 20.8684537957 0.30987928956
1333 1 7.11522602097 22.2182250415 2.89412333269
1336 1 5.62654897151 22.7714998601 1.02484503934
1339 1 5.85267797957 20.2254155859 2.25153456341
1892 1 9.92065354858 20.8463532943 0.28604472439
1893 1 9.96911487106 22.1722985115 2.869501536
1896 1 8.52516377881 22.749565415 0.96027491642
1899 1 8.53487039177 20.2869941325 2.23203715544
2459 1 11.3151048646 20.2381162017 2.2051725899
2456 1 11.3115116577 22.7661797297 0.911064914835
2452 1 12.7322709435 20.862137345 0.284845345116
2453 2 12.7061424757 22.1168047979 2.74973201078
3016 1 14.071266762 22.7930205327 0.924950164259
3019 1 14.0838104351 20.2408013213 2.22354899464
3012 1 15.4028674622 20.8516534174 0.273489194113
3013 1 15.4347512923 22.1656112552 2.87649206636
3573 1 18.3908386994 22.3484455888 2.90594731388
3576 2 16.6286569801 22.6814975154 1.0234678591
3579 1 16.9987829779 20.3744576409 2.09952390013
3572 2 18.7900085288 20.5957873237 0.0756173281599
4697 1 22.2481150878 20.43202445 1.9437685844
4139 1 19.7855777456 20.3343966451 2.20190591318
4691 1 22.3299670693 22.8691407487 0.619307369808
4133 1 21.4739394031 22.1380016536 3.34725716599
4136 1 20.0930506932 22.5478794251 1.12966801014
4692 1 24.4971822846 19.7677324835 2.17329037628
5257 2 25.9197314491 21.7141984166 1.28322600828
4693 1 23.7708650759 22.1751840913 2.36169484611
5258 2 25.0243648021 23.5511296457 3.72198501052
5252 1 27.2503781967 19.8121118026 2.14243222474
5253 1 27.0977368197 22.4245830201 3.4144517739
5812 1 29.9875089178 19.8830886006 2.14627213133
5813 1 29.9449515233 22.4517064035 3.41468982895
5817 1 28.5609967282 21.811944897 1.5189217445
6372 1 32.8146495948 19.8982503955 2.14396203841
6373 1 32.7723517216 22.4623342355 3.39880386322
6377 1 31.3780254875 21.8113329018 1.50662600602
6937 1 34.1826585797 21.8271440329 1.48500373626
6932 1 35.5905795961 19.902089098 2.12004314041
6933 1 35.5790471263 22.4619997546 3.38393149405
7497 1 36.9878618993 21.812077888 1.46413982694
8052 1 41.1994663953 19.8166895082 2.08983970911
7492 1 38.3729794532 19.8748985792 2.09305338358
7493 1 38.3806002374 22.4164826081 3.36502876383
8053 1 41.1826734316 22.3743156569 3.36863572996
8057 1 39.804276296 21.7834189058 1.44996572729
8548 1 44.2040628328 19.833163991 2.18458277688
8617 1 42.4319541932 21.7641201642 1.40338667838
8604 1 44.7142859715 21.751825346 0.633982567694
8613 1 44.0138765601 22.0350332811 3.23871341704
211 1 0.917651838597 25.7412400232 2.45906825377
849 1 3.20114863452 26.7568144325 2.74195769178
777 1 3.33868896838 24.2927388333 3.36465529352
219 1 2.66103482567 24.7799240962 0.876732024336
288 1 0.321514078344 25.234626036 0.228585623643
282 1 1.85716211638 27.4902550297 0.896235700936
771 2 4.82778985886 25.1003799046 1.64346024384
1331 1 7.24947696473 24.700897792 1.64375782678
1409 1 5.91408613803 26.7732756098 2.51330409926
842 1 4.41742202314 27.2465151162 0.485116107355
1402 1 7.25340387136 27.2570539511 0.362572763479
1337 1 5.83054556928 24.2228682155 3.60309420148
1891 1 9.96472207703 24.6626674481 1.5941302713
1969 1 8.66003154884 26.650853595 2.2221895905
1897 1 8.6065488855 24.0646977074 3.54575805909
1962 1 9.97263839472 27.2401076462 0.291638079155
2529 1 11.3183165499 26.6018495004 2.24434427788
2457 1 11.3517585644 24.0613302604 3.53241017531
2451 1 12.6944766042 24.6820894621 1.58718015941
3089 1 14.0737016309 26.5888195454 2.23186331938
3017 1 14.0687777711 24.0783324484 3.51788769595
2522 1 12.7142565548 27.2257136714 0.295214479348
3011 1 15.3681226331 24.7090679699 1.57520370011
3571 2 18.840342937 24.6731399457 2.12257652999
3649 1 17.0148174045 26.4869154784 2.10189719857
3577 1 16.8277612405 24.0766476501 3.4400911402
3082 1 15.4604994407 27.2555114611 0.317897316461
3642 1 18.42639957 27.3475400426 0.246526693787
4131 1 21.0548995803 24.9125968946 1.23906594488
4209 1 20.0753361539 26.8123644612 2.61515971865
4202 1 22.5338434827 26.8887252725 2.50171030848
4698 1 22.7719708525 24.3491651162 2.83781952827
4208 1 21.4478659124 27.2277968167 0.127387630645
4134 1 20.2915977093 24.1501111768 3.63867890744
4762 1 24.597688353 23.8847257491 0.706738067602
5329 2 24.4542442512 25.8578656765 1.93961836018
5326 1 25.8486951809 26.1670951067 0.0552671372599
5251 1 27.1807036676 23.7911084384 0.808671124539
5811 1 29.9831255828 23.7318617327 0.871068746058
5322 1 27.1299657553 26.2757472282 2.15854819289
5818 1 28.5614434302 24.3576978529 2.75556602486
5882 1 29.9384183503 26.3208989371 2.18092223225
5886 1 28.6171650717 25.6783436359 0.259486120735
6371 1 32.7561279125 23.7511835362 0.857517067615
6378 1 31.3503882904 24.3863779701 2.78471269027
6442 1 32.7369986954 26.3161161267 2.1423865181
6446 1 31.3468963638 25.6912293051 0.234283668455
7006 1 34.1524849717 25.6702618199 0.217743693789
6938 1 34.1549143814 24.3843223858 2.75660316594
6931 1 35.5775715173 23.7442887652 0.845429727344
7002 1 35.5616074668 26.286588236 2.11477815098
7498 1 36.9806903579 24.3666421057 2.74958073019
7566 1 37.0020464436 25.6416359831 0.214752314132
8051 1 41.1899822215 23.7343055481 0.83254068999
7491 1 38.4160271114 23.7199883745 0.855480285567
7562 1 38.4145836324 26.2630857048 2.12575923194
8058 1 39.7800766433 24.3149394167 2.79101438954
8122 1 41.108223718 26.2961900827 2.30196560924
8126 1 39.8263407422 25.6257939722 0.198633968145
8611 2 44.8999046957 23.8797305707 1.96648939113
8618 1 42.5343752998 24.266637629 2.80864934552
8682 1 43.9862513432 26.0683832921 2.26321332747
8686 2 42.3116431694 25.7876541516 0.538332140982
286 2 0.515917540663 29.6448203977 1.31583529089
846 1 3.17800346439 29.3339641226 1.22778147388
283 1 1.13594315103 28.5437478103 3.23853922341
847 1 3.24600127519 30.4550998642 3.5886449777
281 1 1.80974713921 31.3681033417 1.73345702506
843 1 4.64195868909 28.5978508525 3.1260393552
1403 1 7.34985096355 28.6376689376 3.00360575804
1406 1 5.9066948397 29.1087098407 1.10790717447
1401 1 7.23831829134 31.1171336124 1.66750452393
1407 1 5.94208224438 30.5212179365 3.68320866775
841 1 4.6865540286 31.1387268615 1.77960805069
1961 1 10.0002417743 31.0923292837 1.62018068085
1963 1 10.007544179 28.6034379686 2.89285474416
1966 1 8.61638391465 29.1956392689 0.995998667385
1967 1 8.65738385617 30.5792151302 3.59362944145
2526 1 11.361904533 29.1605611523 0.94671842674
2527 1 11.4021120019 30.4500917977 3.51990439621
2521 1 12.7536582818 31.0619495008 1.59069126833
2523 1 12.7186114424 28.5068250229 2.88422883483
3086 1 14.097366716 29.1317537707 0.952294198269
3087 1 14.12908575 30.3833155326 3.51612546757
3081 1 15.4981555583 31.0067841781 1.57991780591
3083 1 15.5184293817 28.4177791237 2.85178590879
3643 1 18.2768666259 28.4425146592 2.85094777498
3646 1 16.8856670986 29.0752334266 0.967827895441
3647 1 16.8507230855 30.3347656906 3.51159691926
3641 1 18.2117185213 30.9496213861 1.55584952211
4203 1 21.5082875362 29.1036749575 3.33632296531
4201 1 22.4660686182 29.2917946856 1.25214032503
4206 1 19.8814001361 29.0167592139 1.13589100205
4207 1 19.4838305158 30.4121126738 3.48878432737
4836 1 20.9164746484 31.1091025308 1.68237999092
4767 1 24.0873640012 27.8486435357 0.604348426096
4768 1 23.1259621929 30.9899292625 2.85557573453
4761 1 25.0888404107 30.4390284378 1.52159289049
5327 2 26.1731273761 28.3896408516 1.38475694831
4763 1 24.478415434 28.8925937825 3.26962593022
5323 1 27.093367537 29.0534254507 3.46179411103
5321 1 27.3525054429 30.2638446601 0.830451389994
5881 1 29.9526975067 30.2111062841 0.86802973521
5883 1 29.9401212146 28.8972842471 3.48719658024
5887 1 28.6145986714 28.2711712689 1.58464870464
5888 1 28.6345717731 30.8440727664 2.84346563866
6441 1 32.7675032609 30.163574447 0.870694409303
6443 1 32.7541168792 28.877537901 3.42925568271
6447 1 31.339463738 28.261134198 1.52654551212
6448 1 31.3655443381 30.8104775358 2.80330254775
7007 1 34.1514962007 28.2179768678 1.49647400268
7008 1 34.1805015023 30.7878760506 2.7776618388
7001 1 35.574905216 30.1130077483 0.862214375854
7003 1 35.5530540245 28.8470691425 3.4002861337
7567 1 36.9778224951 28.1843139467 1.49143239956
7568 1 36.9441427987 30.7403461955 2.79672527356
7561 1 38.3426378924 30.1136068082 0.873958025129
7563 1 38.3563520503 28.8497864563 3.40455080039
8121 1 41.2171839519 30.0121385258 0.836158236541
8123 1 41.1845126012 28.8017606294 3.3874101452
8127 1 39.7392858934 28.2109713659 1.51140381568
8128 1 39.7638328592 30.7232515101 2.74060400708
287 1 45.5331235864 30.9575819989 3.16201823918
289 1 45.3196721798 27.638046143 1.34942213307
8681 1 43.8889627881 29.9576475852 0.85840591711
8687 1 42.5997385214 28.0692506947 1.47164540558
8688 1 42.5996648564 30.6680663321 2.80885395027
8683 1 44.100536415 28.873359401 3.14727188713
353 2 1.96860250927 35.0627696558 2.77653865084
919 1 3.11155574863 33.1537051222 2.19534312433
8753 1 0.373924626959 33.9984407428 1.30024838679
344 2 3.42983211232 31.6673347766 0.0564102269512
912 1 4.5878856343 33.6677251354 0.3882919634
913 1 4.48047453099 35.0405734677 2.9873186455
1472 1 7.29601105654 33.6500758203 0.437398462016
1473 1 7.28491350077 34.9555554461 3.0284301069
1479 1 5.9090754184 33.1238085317 2.35009143953
2032 1 9.99060166135 33.6284684384 0.389288879668
2033 1 10.0567229038 34.9066064579 2.96755536483
2039 1 8.64458869745 33.0042209097 2.36569310926
2599 1 11.3928347549 32.9920338766 2.23540788066
2592 1 12.7617705889 33.6343419681 0.319799022451
2593 1 12.7403183846 34.9065553069 2.82333584279
3159 1 14.1323481945 32.9626595546 2.22117874048
3152 1 15.4962014945 33.6008820181 0.304833285425
3153 1 15.4779368911 34.8877526742 2.78660580581
3712 1 18.2201773533 33.5836098027 0.377915396639
3719 1 16.8020025284 32.8885324289 2.2193800154
3713 1 18.1565469141 34.8690320675 2.68597451338
4279 2 19.3399507248 32.8430034283 2.33795627489
4839 2 22.3685646069 32.9875918666 2.23864341153
4272 1 21.0245476215 33.0252819708 0.266986417219
4837 1 20.2422775726 34.9227670892 1.56079341007
4273 1 21.9617887808 35.0032925527 3.35336720827
4824 1 23.1594109677 32.0268040908 0.289739762508
4838 1 22.9940546121 34.8366037118 1.10256374191
4832 1 24.5937134858 32.8892786482 2.19401970324
5396 2 25.9770741061 32.3362252318 0.390291880558
5397 1 25.8134845477 34.798548471 1.57357137614
5392 1 27.1771786918 32.6728844234 2.24924069365
5952 1 29.9929222295 32.7523039994 2.15260524473
5953 1 30.0483750269 35.3237495003 3.43634980771
5956 1 28.5918960817 32.193883061 0.214516635891
5957 1 28.6493030862 34.6895306844 1.52353719746
6512 1 32.7937918348 32.7188215405 2.14908446426
6513 1 32.8320601155 35.2771754943 3.42462741305
6516 1 31.3829307703 32.1030741355 0.22418195399
6517 1 31.4075507759 34.6513165135 1.498968684
7076 1 34.223314292 32.0668547481 0.249196204891
7077 1 34.2346817054 34.6326506188 1.52699629731
7072 1 35.6002846801 32.7038709702 2.15597917483
7073 1 35.6289901398 35.2657531699 3.43929384011
7636 1 36.9715580615 32.0447234499 0.212311158533
7637 1 37.0276022672 34.6193051549 1.53662779439
7632 2 38.2209454564 32.5520017801 2.09598005132
8192 2 41.2862341313 32.4487714624 2.07667305
8197 1 39.7766795799 34.5266713054 1.61932336678
8196 1 39.7575606624 31.996616903 0.266516392348
8193 2 41.3535077413 35.2090991045 3.41915596079
358 1 45.4317835727 31.7721747187 0.355737416624
8752 1 43.8248278758 32.5658480516 1.95453732801
8757 1 42.3781014042 34.5323944477 1.46280483279
8756 1 42.5127265286 31.8913157167 0.164394126689
8761 1 44.0531407818 35.3399962792 2.9528693829
359 2 45.001134187 33.4107459924 3.53856117296
916 1 3.12635173348 35.4367513334 0.951159866839
356 1 0.756144072583 36.4546319678 1.37294673535
351 1 1.15410077965 38.6968197689 2.15341598386
917 1 2.96227527209 37.0635798463 3.24844654228
988 1 2.92212777932 38.0274430674 0.303989944458
911 1 4.66817411055 37.527372112 1.72781773571
1471 1 7.3060674545 37.5120310304 1.73009823068
1476 1 5.92152562588 35.5690998919 1.09167413613
1477 1 5.87985438306 36.8835885942 3.67182110855
2031 1 10.0573791261 37.4953125137 1.67638118536
2036 1 8.66381160753 35.5693765785 1.0793696863
2037 1 8.70238031966 36.8396111587 3.60469496465
2596 1 11.3688817928 35.560103299 0.979941825007
2597 1 11.4701349624 36.8328398932 3.59039438825
2591 1 12.7558220405 37.4936556186 1.58618330655
3156 1 14.1376488129 35.5718749348 0.940428490887
3157 1 14.0675515767 36.8805725489 3.42448664801
3151 1 15.5358207644 37.5133898448 1.57980397752
3711 1 18.4832450247 37.271709315 1.61316095483
3716 2 16.8059164361 35.5749242205 0.909821760668
3717 1 16.9580979137 36.7769631332 3.34715697655
3789 1 17.0007417297 39.2771591503 2.40481404406
4276 1 21.3298826525 37.0753768666 1.09544734317
4277 1 20.0389499254 36.6034934625 3.34957296368
4271 2 22.094714656 39.1578554345 2.14584386791
4349 1 19.7080199553 39.2243359544 2.36705904691
4833 1 24.4279892177 35.3747674881 3.55368810962
4902 1 22.942940194 37.1497475575 2.82148327739
4831 1 24.4343670654 36.6950880801 0.856753945292
5398 1 25.7995934635 37.2585230446 2.78619046923
5466 1 25.8103642875 38.5726893231 0.150635490801
4907 1 24.4395911136 39.1581691969 2.05363107575
5393 1 27.2862959048 35.3629549947 3.40332956815
5391 1 27.2413887719 36.6510180556 0.854591711654
5462 1 27.1993009564 39.1610113722 2.09482062398
5951 1 30.0421801991 36.5987476238 0.86479539206
5958 1 28.6466651659 37.2531510989 2.76762143976
6022 1 30.0587298516 39.1282600911 2.12897620855
6026 1 28.6634848418 38.5434554276 0.216022775159
6511 1 32.8417004804 36.5536384437 0.881890396826
6518 1 31.4602398354 37.2113299605 2.77697396268
6582 1 32.8688171647 39.1143811229 2.1638001033
6586 1 31.4727059904 38.4934372885 0.248902274456
7146 1 34.2437931913 38.4646099456 0.269908977677
7078 1 34.2532473187 37.1883379872 2.7969022559
7071 1 35.6495583126 36.5501949876 0.903060768316
7142 1 35.6513190158 39.1018301336 2.18220894191
7638 1 37.0297085968 37.2052401773 2.81523410805
7706 1 37.0643348855 38.4577791127 0.277904256624
7633 2 38.2537282566 35.3676636966 3.50998633577
7631 1 38.4761864416 36.506463762 0.94755958632
7702 1 38.4837743507 39.0450080173 2.19528814428
8191 1 41.161842753 36.447791846 0.876349733693
8198 1 39.8704661865 37.1150829094 2.8544374799
8262 2 41.090265665 39.1273051466 2.08176221542
8266 1 39.8984078663 38.4258760103 0.224743059083
8751 1 44.0539172594 36.1664431499 0.785524667415
8758 1 42.4224874409 37.2183642208 2.81886824871
8822 1 44.6423220762 37.9768201045 2.23623748379
8826 1 42.8224737558 38.1159173752 0.420617649661
989 1 3.23701652495 39.569695462 2.46789575378
423 1 1.58043350581 41.3014685624 3.14083627913
986 1 3.2738607283 42.0371704274 1.12523746878
422 1 1.86391003011 40.2366663903 0.503890215845
421 1 1.14458277882 42.8778512663 1.26322861519
982 1 4.5234767361 40.0446908299 0.452860706363
983 1 4.53035318883 41.4704971688 2.99658620122
1542 1 7.32699594341 40.104978944 0.402860280081
1543 1 7.35800829899 41.4241532821 2.86831509123
1546 1 5.91788089894 42.0041254762 1.01230360896
1549 1 5.94177552883 39.4956588097 2.35795068153
2102 2 10.0512849858 39.9597465657 0.430516522992
2103 1 10.0781723949 41.3793247993 2.89286824255
2106 1 8.72190964779 42.0239699374 0.974995294096
2109 1 8.69057742978 39.4472409376 2.31359986883
2666 1 11.4121289779 41.9817891114 0.97794938314
2669 1 11.445021293 39.4187683438 2.30379370297
2662 1 12.7796614781 40.044607654 0.361194279306
2663 1 12.7683623145 41.3390646802 2.92561711351