ITEM: TIMESTEP
0
ITEM: NUMBER OF ATOMS
8960
ITEM: BOX BOUNDS pp pp pp
0.0 45.68
0.0 51.0717926061
0.0 44.6878185303
ITEM: ATOMS id type x y z
569 1 3.05175751328 1.3318161752 2.25975443258
566 2 3.34635003356 3.66431888042 0.704047131811
8465 2 0.84718222067 0.580967113252 1.44992514711
8401 2 0.0438099369687 3.62896819559 1.84734617593
2 1 1.59765335675 2.27691871148 0.251614349674
562 1 4.45920354578 1.74676611721 0.315836319464
563 1 4.52773801428 3.13341224826 2.88884038427
1122 1 7.2879489795 1.77605430929 0.366533960449
1123 1 7.27949930414 3.06636597094 2.93480379786
1126 1 5.93186933838 3.67859567828 0.966963106568
1129 1 5.87240549758 1.17967813979 2.27573107218
1682 1 10.063392792 1.79232562698 0.38030933077
1683 1 10.0367175831 3.09840289537 2.94738283888
1686 1 8.67691066005 3.70000119925 1.01330348307
1689 1 8.65527025149 1.15684858861 2.29742716902
2249 1 11.421589646 1.23258763711 2.31197654622
2246 1 11.4500018806 3.74625927541 1.04067282061
2242 1 12.8412284509 1.86130581168 0.409176040517
2243 1 12.8511095842 3.15527345196 2.94967256577
2809 1 14.2058925908 1.2309448259 2.31698202898
2806 1 14.2665239474 3.77913174331 1.04522092102
2802 1 15.5716247816 1.80914187109 0.440776557982
2803 2 15.6509605235 3.01329393796 2.98164420846
3362 1 18.4114497983 1.72900995725 0.41027535485
3363 1 18.3540705688 3.13345302312 2.88137663689
3369 1 17.0442997116 1.115599203 2.30207129097
3366 1 17.0241487155 3.73473089631 0.997626178504
3929 1 19.677854775 1.17462321953 2.36152748828
3922 2 20.9936446791 1.47193718242 0.55509145562
3926 1 19.8336784391 3.69388018957 1.0054323169
4487 1 23.2417539565 2.14446407239 1.12521936239
4482 1 24.3567285198 0.527864159546 2.24505280925
5047 1 25.7109748373 2.58851407328 1.53278225661
4483 1 24.2448120312 3.29897061736 3.34005034886
5046 1 25.5681237766 0.259898852131 0.178351134635
5042 1 27.1681396294 0.699653681309 2.14410430328
5043 1 27.185976258 3.22952884667 3.43557643504
5602 1 30.0247373368 0.721596752327 2.16206688201
5603 1 29.9873101591 3.2695698769 3.42211087352
5607 1 28.5723568818 2.59545383226 1.54482839538
5606 1 28.6129196604 0.0919018636848 0.263965550128
6162 1 32.780986207 0.726774410085 2.15864113663
6163 1 32.7840794047 3.27515256526 3.4126534262
6167 1 31.3891885786 2.65986268898 1.5243073398
6727 1 34.2097916874 2.60594353026 1.52242458514
6726 1 34.1804612771 0.0924794653672 0.246014336656
6166 1 31.4084093598 0.0676279350178 0.259390092094
6722 1 35.5979666079 0.70283503673 2.15351300429
6723 1 35.6079701738 3.26815236264 3.41270968224
7287 1 37.0068554225 2.6239052649 1.50104012385
7286 1 37.0040302651 0.091469475939 0.227463270118
7282 1 38.362081552 0.67044595536 2.17166849682
7283 1 38.3961228374 3.29536914575 3.42097940335
7842 1 41.1549785321 0.751109967033 2.13913868066
7843 1 41.2589174675 3.13302722664 3.47552084945
7847 1 39.6561304255 2.63541684464 1.54456673758
7846 1 39.7518582899 0.0271349882821 0.272083949357
8407 1 41.8776885415 3.44170801543 1.24906449396
8403 1 44.0108894608 3.36708858132 3.36727182767
8402 2 43.2406513421 1.75807032761 1.96681274961
6 1 1.89996503929 4.97921883057 1.73902362172
639 1 3.14310202295 7.41812622173 2.28897723787
79 2 0.909907346995 6.98746947835 2.01864950589
1 1 0.264070641465 5.18802391346 3.69316723446
561 1 4.53145640325 5.56532515685 1.67237810559
1121 1 7.29234164556 5.58915506445 1.64449552774
1199 1 5.9517522333 7.47861881167 2.3100607883
1127 1 5.94022476543 5.00479475071 3.59221347197
1681 1 10.0555268658 5.630749843 1.67051385474
1759 2 8.663426591 7.49598819353 2.18096942941
1687 1 8.65851891034 4.99511155767 3.58201641411
2319 1 11.3988246205 7.56816363403 2.32786872325
2247 1 11.420971696 5.05390171139 3.59039710145
2241 1 12.8491477339 5.67671955114 1.6734473115
2879 1 14.2196958529 7.61503145521 2.31367250755
2807 1 14.2687104838 5.04950762393 3.54959453749
2801 2 15.6483122235 5.81191549812 1.59922598373
3361 1 18.4427737042 5.67474255209 1.60935606397
3439 1 17.0895575659 7.62542578034 2.31942388246
3367 1 17.0535880197 5.07489929419 3.51698986209
3923 2 22.0397769388 4.01537788985 2.12238438322
3921 1 21.3682521838 5.89537873496 1.10627985052
3927 1 19.9834788805 4.99043957118 3.27281235646
3999 1 19.882055631 7.58785351605 2.22896803675
4557 1 22.3450047909 7.76517820941 2.37225805712
3995 1 22.7842425944 5.59562642076 3.47119308996
4481 1 24.1504716964 4.78626143014 1.10389199207
4552 2 24.5831718034 6.97028335801 2.48542790151
5048 1 25.8138781698 5.09490256137 2.83639005316
5116 1 25.8209114419 6.42862278024 0.226452170202
4556 1 23.5421793081 7.0999013414 0.463621665053
5041 1 27.1162915354 4.49767795174 0.890160330715
5112 1 27.1630924271 7.06386700029 2.18854856434
5601 2 29.8387582357 4.52721166289 0.914149386757
5608 1 28.5392297097 5.16280974578 2.81382752214
5672 1 29.9651269614 7.06012456774 2.16569107221
5676 1 28.552178269 6.43634363816 0.283551595458
6161 2 32.9241404677 4.52037911501 0.871023646606
6168 1 31.380755062 5.15748902539 2.74921329996
6232 1 32.7675142507 7.07160173951 2.12366877144
6236 1 31.3642910608 6.42173909128 0.25207465848
6796 1 34.1710241859 6.42572997796 0.226782074293
6728 1 34.202270949 5.18181633221 2.77842581948
6721 1 35.6058926419 4.52627576826 0.855961536227
6792 1 35.5958039007 7.08870849613 2.10294440831
7288 1 37.0130268087 5.18927328292 2.73700994683
7356 1 37.0171024129 6.43315451756 0.185203603522
7281 1 38.3932295456 4.56809797816 0.817313947614
7352 1 38.4197579996 7.10004873489 2.07689695706
7841 1 41.7722660619 5.61869817191 0.365611510761
7848 1 39.9577983577 5.11970706017 2.59108078459
7912 1 41.06890653 7.22294941666 2.04898498795
7916 1 39.7294084041 6.55457445746 0.0815011034993
8408 1 42.4767382886 5.22279001296 2.84597427518
8472 2 43.4552421375 6.71592228114 1.51835809715
8404 1 44.89568541 7.61325996567 3.40452069392
72 1 1.91088730861 8.20900701718 0.252264270619
73 1 1.59616728996 9.36964565304 2.87963275186
636 1 3.1998550465 9.98099144908 1.04180341152
637 1 3.14546007077 11.2216811554 3.62200570154
134 1 0.61485581844 10.4654916163 0.56065968939
632 1 4.56890717686 8.0815945115 0.379016191548
633 1 4.53210810435 9.33915988159 2.94133334997
1192 1 7.296773011 8.17326348202 0.338799129796
1193 1 7.27119479702 9.42910441893 2.95209011303
1196 1 5.9116971582 10.0315845815 1.01522667496
1197 1 5.8330414075 11.3272915548 3.59702616456
1752 1 10.0664958746 8.22072583147 0.376322941368
1753 1 10.00390366 9.46217914281 2.95905896796
1756 1 8.62672057853 10.08117019 1.06082580357
1757 1 8.60637206536 11.3699653447 3.60557324256
2317 1 11.3911347549 11.3942169058 3.5898368234
2316 1 11.4241566914 10.1188167389 1.08844719319
2312 1 12.8109669661 8.22620454406 0.402937498395
2313 1 12.8049282797 9.48587584653 2.97120123198
2876 1 14.1988233067 10.145840476 1.06274633056
2877 1 14.2009318187 11.4228904092 3.59421514632
2872 1 15.6388506883 8.2401490693 0.415322423417
2873 1 15.6440756019 9.52536908997 2.95389612235
3432 1 18.407675112 8.25403119528 0.384158451471
3433 1 18.4649491612 9.55694014731 2.97541567074
3436 1 17.0486292415 10.2144524828 1.07813565818
3437 1 17.0376694755 11.4874279972 3.55187440045
3993 1 21.0999873256 9.6317389528 2.91267077699
3996 1 19.7060675481 10.2268789729 1.02905851207
3992 1 21.2934904379 8.57214003827 0.39015760894
3997 1 19.8250903492 11.5269613355 3.7212444842
4551 2 23.579630651 9.50463926112 0.591967165834
5117 1 25.6645688345 8.80968247897 1.37891078143
5111 2 27.0710557278 10.7212704577 0.735565403896
5113 1 27.1063727776 9.72999217605 3.33426993119
5671 1 29.8473851463 10.9022578623 0.88797683449
5673 1 29.9972793488 9.54305381789 3.42476183452
5677 1 28.5341604868 8.92717531952 1.50809982243
5678 2 28.7954741435 11.4383481814 3.16314821585
6231 1 32.7880319155 10.8814770237 0.838376034449
6233 1 32.7449911896 9.603789218 3.38688520262
6237 1 31.3486425433 8.98020012843 1.47549904252
6238 1 31.3298016247 11.5298935693 2.76258066973
6797 1 34.1715814728 8.98104887979 1.4731676378
6798 1 34.1096508032 11.5428642648 2.79208385603
6791 2 35.5315923865 10.9682441419 1.01551849852
6793 1 35.5637438822 9.62314836707 3.36791723376
7357 1 36.964837495 9.00520783953 1.42687381062
7358 1 36.940670541 11.5690892023 2.74144639188
7351 1 38.2521229313 10.9675551524 0.736310871616
7353 1 38.341858317 9.63840089891 3.33216806271
7911 1 41.1815496693 11.2282838962 0.639827428929
7917 1 39.6481302896 9.09487497402 1.33004397745
7918 1 39.5760507 11.6188251287 2.64908118235
7913 1 40.9325506474 9.71837379523 3.32836524824
8477 2 42.0177994979 9.3543080166 1.46846865622
76 1 45.0643769829 8.25612641168 0.606429076116
8473 2 45.0827950636 9.89943173577 2.38665011589
8478 1 43.915789923 10.5865312124 0.497929099675
71 2 2.02124090925 11.8864867833 1.80425793618
709 1 3.21160763481 13.7860664316 2.33612880316
706 1 1.64292810169 14.1110035872 0.558076063644
143 1 1.64534173354 15.3876571635 2.82280891654
631 1 4.54330923358 11.9118277197 1.64070652149
1191 1 7.22916950059 11.9867199318 1.68178628388
1262 1 7.20545724978 14.5424296273 0.410139001453
1269 1 5.78142321269 13.8624150871 2.30703430647
702 1 4.3768538295 14.5121017849 0.32206842008
1263 1 7.17672441943 15.703419908 3.06755805858
710 1 4.45869359957 15.6977385034 3.10307664073
1751 1 9.99758094416 12.0221217998 1.70058607306
1822 1 9.90798847194 14.6440783588 0.408190034402
1829 1 8.58324193361 13.9197820624 2.32519545369
2389 1 11.3313959506 13.9883555548 2.31238788699
2311 1 12.7822599335 12.0705896783 1.69928033448
2382 1 12.7347810156 14.640335617 0.413088529033
2949 1 14.1518517572 14.0017639233 2.31185445959
2871 1 15.576015405 12.0726546214 1.6827489105
2942 1 15.5384645147 14.6406189517 0.401854984285
3431 1 18.5239396256 12.2321049861 1.6992163716
3502 1 18.4442876642 14.5950470558 0.435571385357
3509 2 16.8749903056 14.0180994917 2.3012782077
3991 2 21.08789417 11.9490471011 1.73023418238
4069 1 20.4498177496 14.0807217677 2.2649368103
4062 2 20.9836823817 14.8231019315 0.177278575713
4626 1 22.8100549844 13.1738825286 0.427621907849
5118 2 24.1760518681 11.9545618009 2.27966277916
4622 1 24.1147300215 14.0675237921 2.70908694516
5187 1 25.4552870717 15.6140193404 1.24080968386
5186 1 25.4635660179 12.8769547624 0.304375394486
5182 2 27.168537685 13.7220182981 1.57670220779
5742 1 29.8468096266 13.4311432771 2.09315819342
5746 1 28.5024588822 12.8261796105 0.0494460631026
5747 1 28.5676003499 15.4428244653 1.43327935687
6302 1 32.7226631947 13.4440013861 2.10568317267
6306 1 31.3207841417 12.7645540183 0.232806592038
6307 1 31.3115076537 15.3610987765 1.56063696218
6867 1 34.1357632399 15.365619617 1.47098416763
6866 1 34.1463981694 12.8070452697 0.198947743111
6862 1 35.5105237396 13.4518336089 2.09221420666
7426 1 36.8805019537 12.8557477042 0.140820842482
7427 1 36.8539195825 15.3977304602 1.40991034186
7422 1 38.2430451627 13.5176206259 1.99242651815
7982 2 40.8728878192 13.418167891 2.06989028311
7986 1 39.6363321663 12.9569310157 0.0822418205426
7987 1 39.6444936341 15.4360420323 1.39314125018
8474 1 45.4326534311 12.3830263236 2.21837706411
77 1 43.1738653748 12.8981605708 1.24883563568
141 1 45.1281206382 14.7271812991 1.34300405516
8547 1 42.4166015097 15.3220443563 1.44692112999
7914 2 43.3473209188 12.2292761445 3.62912700412
8543 2 1.00280428207 16.4899431702 0.38819378823
213 1 1.02455283866 18.1830121486 1.95881498391
701 1 3.33217069019 19.0489578314 2.11683089501
707 2 2.78672379599 17.3352143892 3.5793418258
703 1 3.22065288477 16.5472180426 1.29028900325
1266 2 5.74969970702 16.2436127259 1.14261977415
1261 2 7.31308594221 18.8540610862 1.54464807919
1338 1 5.14497264765 18.5324670712 0.672769474029
1821 1 9.88261686948 18.4680931681 1.68545148206
1823 1 9.87491257981 15.9141180299 2.9377134399
1826 1 8.39873800133 16.5772829587 1.05033441963
1827 1 8.44658807831 17.8029416666 3.57679203954
2387 1 11.291672393 17.8260007769 3.5752306757
2386 1 11.2879709372 16.5558789605 1.03284081909
2381 1 12.7020536983 18.4634507246 1.65918590378
2383 1 12.7146149613 15.9114371552 2.93818629332
2946 1 14.1241038282 16.5509436467 1.03581599964
2947 1 14.1118474461 17.8320672301 3.56695823674
2941 1 15.5359298103 18.4517933789 1.67528316063
2943 1 15.5272280438 15.9456451718 2.9280335559
3501 1 18.2933954618 18.5302315192 1.64647752705
3503 1 18.3895646788 15.8783256629 2.89924778149
3506 1 16.97588841 16.5383445848 1.02754231043
3507 1 16.9753018545 17.8166527972 3.57007898893
4063 1 22.7290675721 15.8388379594 1.35626433335
4627 2 20.8822060311 16.392641002 2.88220446663
4061 1 21.1950072477 18.3978038691 1.65425225967
4066 1 19.6848806103 16.5982467275 0.975468879502
4067 1 19.6161058983 18.006807416 3.59567990753
4628 1 22.7580632565 18.0384216981 3.42762056575
4621 1 24.0448519608 17.9291765696 1.190732648
5188 1 25.8848675388 18.1369161506 2.80636326503
5256 2 26.0080113193 19.1999174507 0.328519546656
4623 1 24.5405640977 16.3714447927 3.34399352764
5181 1 27.1827370339 17.3677085054 0.874192481326
5183 2 27.1288636179 16.3384507598 3.1380909048
5741 1 30.0233303094 17.323070676 0.874147298291
5743 1 29.8224104805 15.9778529682 3.48287840362
5748 1 28.6889405863 18.0381074276 2.71992741126
5816 1 28.6060015393 19.2735548042 0.263730279485
6301 1 32.7657692986 17.278207036 0.885981663163
6303 1 32.7783030501 16.0016369732 3.42435246387
6308 1 31.3699150316 17.8985534341 2.82719867407
6376 1 31.3972145109 19.2329445317 0.254643314321
6936 1 34.1297901257 19.2229090529 0.224705851685
6868 1 34.1893026084 17.8762055175 2.75604947938
6863 2 35.5097994999 15.7785618503 3.42036301623
6861 2 35.5089597848 17.3519469914 0.699892257856
7428 1 36.8636240177 17.9075508733 2.71276860935
7496 1 36.9062844344 19.2382157318 0.174991421002
7983 1 40.7694758916 16.1178029247 3.33731427124
7421 1 38.2280636918 17.3066774999 0.770929660954
7423 1 38.1860039943 16.0247617405 3.3223800948
7981 1 41.1891913764 17.2982066025 0.78221466581
7988 1 39.5633586329 17.9578700656 2.58541734239
8056 1 39.7646751381 19.1738305475 0.204464089731
8610 1 44.1652034827 17.1419489468 0.928320342922
8544 1 42.4641271643 17.8134290457 2.72261702368
8616 1 42.8084615588 19.1521009062 0.203900770295
147 2 45.396166957 16.298942487 3.05144728883
776 2 1.92083832919 20.2278944206 0.889525323011
220 1 1.02781532562 20.5526566427 3.33347102361
775 2 3.57288555888 20.7197676591 3.56032847839
772 1 4.21577003907 20.9566471386 0.330568105746
773 1 4.16011399246 22.6615771507 2.71916271375
1332 1 6.98721571322 20.9040150753 0.363602784061
1333 1 7.04759227054 22.3427836542 2.92798580318
1336 1 5.72474101262 22.9359275131 0.948319710077
1339 1 5.57694417889 20.542960092 2.29641194718
1892 1 9.97976975183 21.0479001423 0.38091980703
1893 1 9.94258184947 22.3300709014 2.92987172573
1896 1 8.49164289202 22.8656050162 0.992052236112
1899 1 8.54726451941 20.5047755785 2.31522466173
2459 1 11.2831001028 20.358378357 2.29314671619
2456 1 11.3304388086 22.9381994826 0.995504776952
2452 1 12.7102619414 21.0005790699 0.374418059189
2453 2 12.7182923758 22.2217750618 2.79602887672
3016 1 14.1321399389 22.9150176912 0.983329897155
3019 1 14.1337810001 20.3581710103 2.27899530767
3012 1 15.5302298152 21.0047325799 0.38277277328
3013 1 15.5115952993 22.307104759 2.90816559081
3572 2 18.2608958835 20.8549094751 0.479496884731
3573 1 18.3901438372 22.3396447797 2.90487727308
3576 1 16.8959603362 22.9188884497 1.00600994921
3579 1 16.9091511211 20.4184385837 2.31866065942
4697 1 22.4661009823 20.4646262344 1.89077630217
4139 1 19.8455555477 20.4521605484 2.32579524467
4691 1 22.7242716798 23.0746349317 1.42815788815
4133 1 21.6457352195 22.2742819016 3.45284155913
4136 2 20.2987290316 23.1098168171 1.83807720352
4692 1 24.6291486192 20.0001862397 2.30683076409
5257 2 26.0915615899 21.8735591747 1.93454965734
4693 1 24.3155072507 22.1888164451 3.52149534066
4755 1 24.3869416406 21.1849046631 0.112254463512
5252 1 27.337423978 19.9628905931 2.25550908558
5253 1 27.3556485067 22.5074156165 3.62690222192
5812 1 30.0278942335 19.9153818903 2.17973464557
5813 1 30.0121584728 22.4577355353 3.48394698742
5817 1 28.6197956008 21.8713308268 1.55686215782
6372 1 32.7857268867 19.8279207158 2.17599277414
6373 1 32.8071430596 22.4049792111 3.44244722714
6377 1 31.3998865902 21.8039379119 1.54094874146
6937 1 34.1642473793 21.7671137866 1.51912368373
6932 1 35.5284446869 19.8516068756 2.12948213897
6933 1 35.5482276322 22.4186654545 3.42802036699
7497 1 36.9101062909 21.778107059 1.475195481
8052 1 41.198207759 19.8021751263 2.08590542437
7492 1 38.2457057766 19.8770935582 2.05798799191
7493 1 38.2961086296 22.4004921574 3.35911004313
8053 1 41.1790475566 22.3261066591 3.42505105643
8057 1 39.7854191051 21.7316457113 1.51295841379
8548 1 44.2038919545 19.6471671588 2.24100504497
216 2 45.1692741704 21.7946719517 1.81889647677
8617 1 42.6782671943 21.6828593763 1.60312093811
8613 1 44.0890771002 22.194485021 3.67506735223
211 1 1.08534440754 25.9585449661 2.46534345429
849 2 3.14597817894 27.0296830215 2.30974737372
777 2 2.11888261966 23.7303563785 1.9806017892
217 1 0.0286082356842 23.9216792911 3.29005006645
282 1 1.58835929964 27.3024438746 0.363784084655
771 1 4.26850509809 24.883792301 1.60783645712
1331 1 7.13521040981 24.8507678879 1.62718893735
1409 1 5.72592385938 26.7629292026 2.30541882416
1337 1 5.71350909576 24.276077232 3.50723818891
1402 1 7.16894316172 27.4011306833 0.394368190761
842 1 4.41679504494 27.4879213249 0.343254469613
1891 1 9.93413353147 24.8081435752 1.65323377731
1969 1 8.55753376751 26.752299061 2.28884277329
1897 1 8.51356610211 24.2069091891 3.55588095808
1962 1 9.96851197179 27.3986576124 0.370743065302
2529 1 11.3348123767 26.720665683 2.28327831311
2457 1 11.3472098863 24.1837376918 3.56685293283
2451 1 12.7256961199 24.8105151067 1.64572645226
3089 1 14.1135859338 26.7004442375 2.26396709561
3017 1 14.0936948176 24.172889998 3.54223423603
2522 1 12.7341538178 27.3838412223 0.361718243429
3011 1 15.5372486878 24.7962440613 1.63803095451
3571 1 18.7005038493 24.7059612053 1.22854850113
3649 1 16.9578472226 26.668694853 2.20795078421
3577 1 16.9767254634 24.1929215872 3.46871786216
3082 1 15.5191834437 27.3543482003 0.344065562832
3642 1 18.3445996098 27.2911890036 0.215634337419
4131 1 21.564804053 25.1609765164 2.11263053265
4209 1 19.479502538 26.7973557076 2.1790709379
4202 2 21.4289933911 27.2455808266 3.04323494588
4134 1 19.7517908856 24.3429642608 3.7041987697
4762 2 24.5498303116 23.7942243434 0.216428936391
5258 1 25.7034865007 24.3032430464 3.35684577387
5329 1 24.4713678863 25.4772083327 1.74654629004
4769 1 23.658511785 26.5104499983 3.60454879458
5251 1 27.0476886394 23.8008097233 0.935042050847
5811 1 29.9824332655 23.7386977083 0.899764084191
5322 1 27.1148064387 26.1377216907 2.02791777198
5818 1 28.6133137153 24.4028101835 2.83411658428
5882 1 30.0238360696 26.2741715225 2.12404762316
5886 1 28.5999297963 25.6267793046 0.213691789084
6371 1 32.7878630933 23.7085498326 0.884935980143
6378 1 31.4077333412 24.3502056039 2.80253239401
6442 1 32.793453969 26.2738133473 2.16474092683
6446 1 31.4117496072 25.6410427718 0.242252683366
7006 1 34.1781038878 25.6208965639 0.239595895401
6938 1 34.1678742152 24.3373675132 2.80125080029
6931 1 35.5500472297 23.6935108442 0.866426143847
7002 1 35.5685526355 26.2321548596 2.14802118075
7498 1 36.9458627291 24.3148793908 2.77012658232
7566 1 36.9895146468 25.5772477316 0.252240022124
8051 1 41.3040853813 23.6251027243 0.930166649697
7491 1 38.393554638 23.6593087092 0.887507261332
7562 1 38.4070788147 26.166842406 2.15695703882
8058 1 39.8189564305 24.2587710351 2.79479009258
8122 1 41.3755410939 26.0836592108 2.16522343082
8126 1 39.8631782565 25.5426192045 0.289643811708
8611 1 44.17242529 23.6591566957 1.04414646119
288 2 45.1561022331 26.0280309477 0.609184109563
8618 1 42.6894728779 24.1544590291 2.92378694353
8682 1 44.2127518398 25.9185263518 2.5982313735
8686 1 42.7865029698 25.4762547268 0.163023621709
286 2 0.702100647456 29.8399288749 0.810247372436
846 1 2.95276932151 29.3793765627 0.969395452298
283 1 1.48859849538 28.7017477047 2.87758954157
847 1 2.96967288437 30.6336563162 3.53080872017
843 1 4.41110405961 28.7688720662 2.92405958514
1403 1 7.15906355742 28.6652789711 2.94415189293
1406 1 5.831724174 29.3549551201 1.01837774477
1401 1 7.22972794665 31.2504405913 1.65762795757
1407 1 5.82028738629 30.6101834114 3.57485561551
841 1 4.3999211781 31.2394589921 1.66766603352
1961 1 9.99595237673 31.2426024163 1.64950853169
1963 1 9.96761736634 28.6663695199 2.92861329693
1966 1 8.59007135122 29.3174680178 1.02201321802
1967 1 8.59411920597 30.5911953336 3.56958382851
2527 1 11.3691864594 30.597873688 3.56979033529
2526 1 11.3554166276 29.3101889718 0.996889952098
2521 1 12.7354287882 31.2268741632 1.62469622712
2523 1 12.7200718468 28.6358054718 2.90499639337
3086 1 14.1158037349 29.2937213546 0.971623043147
3087 1 14.0767323156 30.5358526908 3.54091273601
3081 1 15.4856478654 31.2055216625 1.61462636655
3083 1 15.4837923917 28.5976314395 2.86674988852
3641 1 18.110761575 31.0943183306 1.69694862369
3643 1 18.1884677762 28.82148281 2.85243087695
3646 1 16.8281660208 29.2326502278 0.91694279071
3647 1 16.7365217186 30.5354493815 3.57212019401
4203 1 20.9338129641 29.4601049328 2.60464472294
4201 2 21.775274596 30.8234453515 0.594841756941
4206 2 19.358077904 29.1811802977 0.859714643202
4768 1 23.1913761299 30.6120147744 2.52721442017
4767 1 23.1406623225 27.758774962 1.6260848144
4761 1 24.3758049424 30.0808066577 0.614248153187
5327 1 25.7378920399 28.0526165723 1.38540606144
5328 1 25.8581618379 30.7416323587 2.581131035
4763 2 24.644613397 28.8202734536 3.2043220869
5323 1 27.1889171514 28.8404972147 3.47034272631
5321 1 27.1693975266 30.0599916327 0.750045500987
5881 1 30.0031185129 30.0952904454 0.854166160647
5883 1 30.0421181555 28.819361534 3.38699671281
5887 1 28.5490061638 28.1745381241 1.54457900257
5888 1 28.6063336676 30.7119769906 2.71834872329
6441 1 32.8511110207 30.0931661044 0.855856854108
6443 1 32.8154348573 28.8196128814 3.42934195185
6447 1 31.4204566321 28.1958693405 1.50535849938
6448 1 31.4606194934 30.7393075024 2.72926534248
7007 1 34.2188094337 28.176648722 1.52054696313
7008 1 34.251065797 30.7236511366 2.78839382603
7001 1 35.6726540537 30.0686169233 0.902011239884
7003 1 35.6448860244 28.8180712964 3.41989946757
7567 1 37.0053086598 28.087500176 1.51598083901
7568 1 37.1357118136 30.6927938873 2.76951592433
7561 1 38.4715181379 29.8533127849 0.827825499842
7563 1 38.4083153137 28.6783933697 3.43648939796
8121 1 41.2755328922 29.7654768758 0.775123609832
8123 1 41.2981374341 28.5830794921 3.47402282638
8127 1 39.8789535073 27.9509636486 1.53446107882
8128 2 39.8831111695 30.245089245 2.75121671698
287 1 45.5400355309 30.5258223781 3.1546602523
289 1 45.2465485929 27.992629234 1.72464961251
8681 1 43.9846159995 29.9514755099 0.873514760576
8687 1 42.727390808 27.973231272 1.54480796585
8688 1 42.5397772187 30.4586650659 2.72518055314
8683 1 44.025443859 28.5679281476 3.53151950404
281 1 1.53490594833 31.8057027959 1.90377012615
353 1 1.48458662909 34.6203120694 3.09212368131
919 1 3.23619219133 33.2615444716 2.30938175017
918 1 1.72694510571 33.9297664438 0.393781654669
912 1 4.45815957392 33.8946162524 0.382272698115
913 1 4.55931412607 35.1008371445 3.01254378312
1472 1 7.22409895171 33.8273989618 0.364571619238
1473 2 7.24852433478 34.9964681809 2.79385178554
1479 1 5.83426719581 33.1412561384 2.26853504453
2032 1 10.0215970645 33.8296909121 0.364213365116
2033 1 9.98835906245 35.1093569315 2.93774883153
2039 1 8.64333542712 33.1530279126 2.27463578636
2599 1 11.381084057 33.1805457628 2.30335527151
2592 1 12.7492932556 33.8038976671 0.358245951814
2593 1 12.7862383708 35.100438452 2.98988731189
3159 1 14.0884602029 33.1415291383 2.25109393077
3152 1 15.5208600089 33.7850989156 0.329210416862
3153 1 15.4483246122 35.0383788644 2.96057842176
3712 1 18.27176598 33.685152024 0.470063041198
3719 1 16.7947356935 33.1357575722 2.28470349815
3713 1 18.4096568053 35.0235301806 2.92205837242
4279 2 19.3622718903 32.856392529 2.30005641899
4837 1 20.6068826342 34.4679160794 1.39769362562
4836 1 21.5494280486 32.3047665347 2.29300895106
4824 1 23.2794305405 32.2839783008 0.106392240878
4832 1 24.5253954364 32.6761781914 2.11781101464
5396 1 25.7827744802 32.0525855142 0.13144936991
5397 1 25.6541435909 34.7861312696 1.5376966492
4838 1 23.0361858607 34.4764589681 1.53926034962
5392 1 27.2078870696 32.6820430189 2.06322398202
5393 1 27.1858268696 35.179141348 3.39520781544
5952 1 30.0210007315 32.6493818867 2.10329317766
5953 1 30.0276271609 35.2024347607 3.38742814803
5956 1 28.5789441505 32.0257331544 0.170337195907
5957 1 28.5843745887 34.5945095496 1.47845317525
6512 1 32.8681878493 32.6536043701 2.13643928187
6513 1 32.8848455764 35.2084361311 3.41844664909
6516 1 31.4401632918 32.0060200344 0.221447991245
6517 1 31.4512942538 34.5651653277 1.50078911277
7076 1 34.2796328229 31.9900067146 0.251036422495
7077 1 34.2978244186 34.5565024212 1.52750816404
7072 1 35.6737994916 32.6209760067 2.18554192302
7073 1 35.6536699624 35.2296881467 3.48366004268
7636 1 37.1240837369 31.9416741882 0.32879034075
7637 1 36.9966502134 34.6028606305 1.54125975489
7632 2 38.2772854853 32.8847541947 2.28791365763
8192 2 41.4046143957 32.9514315386 2.41678200016
8197 1 39.8618293301 34.6550684367 1.65774282238
7633 1 38.3738216029 35.159205442 3.50412375636
8193 1 41.3047441311 35.2257754684 3.58694462521
8196 1 39.8706577127 31.8950731398 0.511763701691
8752 1 43.6819922093 32.4961436287 2.12133390388
8753 1 45.2703872843 34.0842893716 1.35922410746
8756 1 42.4320288553 31.8680356655 0.321645970255
8757 1 42.6341682468 34.6505949364 1.63533575098
358 1 45.2850347028 31.9061069106 0.50586099135
359 1 45.4340657852 32.9378236236 3.44305597058
8761 1 44.3437278108 35.3523224169 3.19597698944
356 1 0.52028436592 36.1496856872 1.42809429394
351 2 1.83101913478 37.8758557723 1.60581416411
916 1 3.04907960875 35.7762800875 1.36608741076
917 1 3.11444980191 36.8966119642 3.64764355972
911 1 4.50912957645 37.654427313 1.76851481453
1471 1 7.24140474483 37.6517462448 1.67060445837
1476 1 5.83731993834 35.7568370733 1.03308240498
1477 1 5.94838176057 36.970514114 3.63896489675
2031 1 10.0070694499 37.6395867904 1.6861650614
2036 1 8.63296862879 35.7480099612 0.999163307694
2037 1 8.57861235599 36.9886263458 3.59813174951
2597 1 11.3875665045 37.0156572447 3.60996986718
2596 1 11.4170920987 35.7503890514 1.03458842062
2591 1 12.8422982076 37.6706795737 1.70570333573
3156 1 14.1104205928 35.7095307496 1.06707969921
3157 1 14.2359638832 37.02297521 3.64001360615
3151 1 15.598844627 37.6960445167 1.63841152913
3711 1 18.1051226018 37.6810375314 1.84707728626
3716 1 16.7941057781 35.6291272626 1.12566072672
3717 2 16.7821542256 36.8882795254 3.44442222258
3774 1 18.9243355639 35.9544812151 0.415883846563
4273 1 21.9570473263 35.581308297 3.54611892101
4277 2 20.2386317984 36.7658852708 2.23508615296
4271 1 22.0379240824 38.2333737577 2.011026343
4348 1 19.8259354805 38.203330569 0.105418155879
4902 2 23.7263492302 36.5347767216 2.40995515776
4831 1 24.1546479614 37.0132741778 0.342271611859
5398 1 25.8417961283 37.1859375071 2.58301846979
5466 1 25.9439321744 38.4906017815 0.0372427037819
4907 1 24.3246810778 39.0348176028 1.91323257311
5391 1 27.1821986941 36.5088713757 0.745470929652
5462 1 27.1901354772 39.0406746647 2.0692660294
5951 1 30.0316251971 36.4812030485 0.860396812435
5958 1 28.5631364593 37.0930762745 2.73026081493
6022 1 30.0241986671 38.9943248365 2.11456598697
6026 1 28.6418757094 38.4000341054 0.214910921188
6511 1 32.8845076612 36.4694515499 0.880738152212
6518 1 31.4565364656 37.1024440881 2.76856936384
6582 1 32.8804748675 39.0222746229 2.14842220093
6586 1 31.4711270535 38.3738660123 0.241966042549
7078 1 34.2905930547 37.1331153727 2.79605420199
7146 1 34.2951630249 38.4058131003 0.259432246023
7071 1 35.6820976988 36.5066349691 0.894983441718
7142 1 35.7281135423 39.0570078532 2.17137423965
7638 1 37.1142845475 37.1410766668 2.82749673163
7706 1 37.1285879009 38.4263966892 0.28446247651
7631 1 38.4181173675 36.4658548907 0.900242522205
7702 1 38.5644716954 39.0730606894 2.20957363634
8191 1 41.2836385384 36.5155716214 0.908656075854
8198 1 39.7710980922 36.9890792945 2.83835103438
8266 1 39.8695476129 38.3621244759 0.183475205553
8262 2 41.0100702887 38.680858249 2.08332330002
8751 1 43.9091121979 36.4408965902 0.789374573297
8758 1 42.6290096354 37.1332069436 2.85693029967
8822 1 44.8298252523 38.109716814 2.17479083964
8826 1 42.9025241535 38.5498393361 0.460214286347
989 1 3.1854089583 39.6471994925 2.48545661177
423 1 1.12864385561 41.7244136812 2.77396089063
986 1 3.07540235421 42.0947576816 1.26268927787
422 1 1.81262909175 40.0887269441 0.583676476714
426 1 0.940704297878 42.2894782613 0.378953384401
982 1 4.46900824647 40.2832502073 0.418641357163
983 1 4.59177189569 41.5218780546 2.95848274688
1542 1 7.2025606294 40.2080892281 0.382366989297
1543 1 7.2400223649 41.4956985798 2.94409371643
1546 1 5.8572409802 42.1830081739 1.04274239892
1549 1 5.85001815316 39.5687406525 2.29458934181
2102 1 10.0293987904 40.2098052156 0.379924139588
2103 1 10.0269946438 41.479372604 2.93133491636
2106 1 8.596566424 42.1045650634 1.03678265591
2109 1 8.64745995673 39.5740673321 2.27164183241
2669 1 11.4076054193 39.5560305873 2.32195389888
2666 1 11.4309015762 42.091795291 1.01220882009
2662 1 12.8531907784 40.197174182 0.4130713054
2663 1 12.8111083566 41.4547136237 2.95753754366
3226 1 14.2715163966 42.0481617737 1.08684005668
3229 1 14.2627726551 39.5764529997 2.35998715111
3222 1 15.7371245677 40.1171106622 0.40168175009
3223 1 15.6015039512 41.5013445768 3.05122077149
3786 1 17.027587629 42.0639550203 1.14421933871
3789 2 17.0012754541 39.791178741 2.47180209568
3782 1 18.3956253968 40.1476785239 0.484193752095
4346 1 18.4393396269 41.5284356667 3.08793754166
4349 1 19.6016081656 39.3479129892 2.52577351894
4342 2 21.8848759762 41.8527549425 3.37025094566
4419 2 21.9947951211 43.1476289025 0.529415699726