ITEM: TIMESTEP
18000
ITEM: NUMBER OF ATOMS
8960
ITEM: BOX BOUNDS pp pp pp
0.0 45.68
0.0 51.0717926061
0.0 44.6878185303
ITEM: ATOMS id type x y z
569 1 3.00933452039 0.780083643125 2.35981862347
2 2 1.75222390144 1.64994500159 0.518866630613
566 1 3.05183506311 3.49406572913 1.00909117815
3 1 1.77948675108 2.73724612059 2.94387480357
8465 1 0.63746138082 0.163684745418 2.40397513716
8401 1 0.0853892633854 2.84359672186 1.28365246485
562 1 4.39027604146 1.53398944311 0.421586529533
563 1 4.43454139487 2.88903201672 2.92370560908
1122 1 7.21076884665 1.63592473592 0.403318300938
1123 1 7.22289758138 2.93445295166 2.92960000366
1126 1 5.79687051432 3.5325487616 1.00812273359
1129 1 5.82908906091 1.01637589441 2.31355555112
1682 1 10.0234673312 1.67165463992 0.386098134616
1683 1 10.0516194731 2.97584598881 2.93694082638
1686 1 8.61554922053 3.57046649922 1.02223129748
1689 1 8.65964836786 1.05832701103 2.29795887463
2246 1 11.3790544402 3.60280775564 1.00721824491
2249 1 11.4424939358 1.06790662105 2.28997027067
2242 2 12.6835541375 1.62032067511 0.219244229889
2243 2 12.7846894263 3.05369714663 2.90690075103
2809 1 14.0265310148 1.13143358075 2.22967431071
2806 1 14.1386752821 3.60458584289 0.973976280342
2803 1 15.5662712258 2.99789950674 2.94946602163
3362 1 18.4988481034 1.57533664944 0.608269486836
3363 1 18.4996528285 3.51559885631 2.95086994849
3369 2 16.1170115978 0.988153428548 1.46913902726
3366 2 16.7304927141 3.9072079015 1.09060644974
3929 2 18.9063925401 1.36269808934 3.23280618759
4489 1 22.4418818631 0.884564017731 2.72336328187
4411 2 21.0903194515 0.609485860581 0.730763906052
3926 2 19.9089461941 3.3265969642 1.06433456652
3923 2 23.3736032277 2.72611801225 1.41350119978
4482 1 24.6753431223 0.791140899944 2.27984512291
5047 1 25.9476859725 2.76934609058 1.65125188099
4483 1 24.4086207496 3.47172812476 3.47300965663
4486 1 23.2754872965 0.2978476939 0.323710407201
5046 1 25.9081898131 0.171027049962 0.268687522856
5042 1 27.3283019077 0.815128227791 2.16828124511
5043 1 27.3570978001 3.33606299306 3.5472578926
5602 1 30.1579061638 0.817497329161 2.1672720999
5603 2 30.1087011456 3.32204664084 3.63181153497
5607 1 28.7773183059 2.76881611189 1.64550137837
5606 1 28.7425358048 0.165009714255 0.312422272931
6162 1 32.883952479 0.864523027161 2.16818401012
6163 1 32.8716028839 3.39413326666 3.45435642973
6167 1 31.4769562237 2.78358869229 1.57828463828
6166 1 31.4963096299 0.186006233643 0.268907310127
6727 1 34.2743408717 2.78250594686 1.54056280388
6726 1 34.3052237803 0.203858364455 0.274616446615
6722 1 35.6980511287 0.884493539235 2.17018077346
6723 1 35.6947248584 3.40919382963 3.42136754044
7287 1 37.1357063032 2.8176408794 1.53474011212
7286 1 37.0667279719 0.187011852826 0.294478437406
7282 1 38.4735189143 0.811447177154 2.18366317258
7283 1 38.508862089 3.41948505432 3.51002066707
7842 1 41.4479818387 1.0474809011 2.17510886125
7843 1 41.1589192361 3.50610235576 3.57991646557
7847 2 39.8173474342 2.61758009101 1.61887790416
7846 1 39.9523538845 0.136330333439 0.319374144138
7841 1 41.7753254049 3.72542398117 1.37014718177
8407 1 43.5434104561 2.38949332991 0.705154747437
8402 1 44.0031047961 0.866089201727 2.47410279181
8406 1 42.6909456085 0.0380517930622 0.438183813804
8 1 45.1096943733 0.583197202805 0.383117118908
8403 1 43.5722292866 3.18371772481 3.04687342924
6 1 1.58602378518 5.3250152876 1.46923890237
639 1 2.86797353775 7.36452451599 2.20865364144
567 1 2.93872718855 4.81048045009 3.49238511659
1 1 0.12774151981 4.5224723444 3.06900101272
8404 1 0.122253657569 7.07234466993 2.0571979721
561 1 4.38339567002 5.46684885793 1.63263448596
1121 1 7.20831689486 5.48211401719 1.63179921558
1199 1 5.79013062486 7.39044474507 2.25946338523
1127 1 5.82141135684 4.85026580974 3.52531023531
1681 1 9.99980011361 5.50504954739 1.65649182842
1759 1 8.58912433793 7.42669838884 2.26750869675
1687 1 8.62036590016 4.86914115553 3.564125682
2319 1 11.3732982091 7.43955945515 2.29056045761
2247 1 11.4008523678 4.9221119127 3.58653823883
2241 1 12.7684217567 5.50885444195 1.66937268277
2879 1 14.1309615037 7.48865406098 2.29454098879
2807 1 14.1601157355 4.95060119279 3.59043613336
2801 1 15.4471930601 5.65224796007 1.63171918467
3361 1 18.3596818217 5.48603394561 1.19663769021
3439 1 17.0840834814 7.41850566092 2.2624001236
3367 1 16.8032205288 5.03252264522 3.46548087577
3921 1 20.4471700485 5.13610620226 2.21795338864
4559 2 21.0728882819 7.29296095875 2.94164277482
3999 1 20.1038123749 7.06203130922 0.727331758012
4556 1 22.3371451514 6.07177891896 0.938552813535
4481 1 24.5456559836 4.6175921917 0.866903187956
4552 2 24.0524597907 5.99598641721 2.61988609962
5048 1 26.0912276951 5.17642547811 2.88968779176
5116 1 25.8699461844 6.57170492776 0.540312999429
5041 1 27.3116102087 4.62687934214 0.899559264199
5112 1 27.4103756849 7.21282514249 2.26082690753
5601 2 30.1080935394 4.73920279868 0.832202330739
5608 1 28.7290978203 5.24497701889 2.84242193283
5672 1 30.0915136242 7.18594772794 2.21923593372
5676 1 28.6659915262 6.61060540258 0.312099865705
6161 1 32.8522984864 4.67752438202 0.909751140874
6168 1 31.4685794255 5.26648186619 2.82685400927
6232 2 32.8687819447 7.20652005142 2.18057789735
6236 1 31.4824288057 6.59825684953 0.278239561492
6796 1 34.2563699285 6.58030641775 0.229834402486
6728 1 34.2658239986 5.28421599851 2.79630861671
6721 1 35.6482185467 4.69326574933 0.875036813951
6792 1 35.5939622188 7.23682957414 2.17376961414
7288 1 37.0820980845 5.32372532945 2.78113960313
7356 1 36.9080208864 6.75052981956 0.167558016106
7281 2 38.1959191317 5.07187533484 0.760356960456
7352 1 38.4558879135 7.25171693176 2.10535510802
7848 1 40.0376718894 5.29014834008 2.35200327042
7912 1 41.2493902819 7.40304256361 1.98971627091
7916 1 39.7760015282 6.76909276661 0.113282014705
8476 1 41.8750786708 5.78758442544 0.392233217454
8408 1 43.0067612077 5.4472920655 3.01260646341
8472 1 44.3827476171 4.71209732657 0.949644483665
76 2 43.6281732766 6.7763666927 1.17301437138
72 1 1.46544515242 8.14889456871 0.264733674727
73 1 1.4386952045 9.3091872108 2.96819818706
636 2 3.07398825595 9.74415148768 1.0379648927
637 1 2.94763004742 11.1885902724 3.50651016944
632 1 4.38396398063 7.98816543399 0.337981020507
633 1 4.34679845499 9.28221175193 2.90623808868
1192 1 7.18441901063 8.05272666647 0.345993389666
1193 1 7.17179379471 9.33636305162 2.88376172119
1196 1 5.76827366317 9.93808017724 0.956867935159
1197 1 5.76309032767 11.2287712832 3.50984132879
1752 1 9.96816927863 8.08151649096 0.357098204618
1753 1 9.96947884156 9.36623232128 2.90051571193
1756 1 8.55900514672 9.99863523668 0.96194142036
1757 1 8.56059140604 11.2767924268 3.50919400718
2317 1 11.364180203 11.293229499 3.54107821391
2316 1 11.3537078074 10.011462222 0.988128592276
2312 1 12.7226448784 8.09058799497 0.368481938518
2313 1 12.7495620268 9.37686556082 2.93125896084
2876 1 14.1503937382 9.97048733085 1.01227524773
2877 1 14.1657544762 11.2476196091 3.57401523308
2872 1 15.5312205687 8.03775924214 0.362722484818
2873 1 15.5942568286 9.33045957899 2.93493900571
3432 2 18.1787504184 7.97953179097 0.108916294301
3433 2 18.1857351098 9.50681464443 2.76232354733
3436 1 16.8785130201 9.94763303077 0.951449136578
3437 1 16.8966389864 11.2966620432 3.55042802369
3993 1 21.7190213588 9.67043190232 2.43486679534
3996 1 19.7363297044 9.94255226026 0.931173403987
3997 1 19.8212981644 11.0924905027 3.50406688936
3992 2 21.643523472 8.5400284142 0.132756744658
4557 1 23.5157863047 8.12659762322 1.89230070373
5117 1 25.762018224 9.17464425986 1.83926210635
5118 1 23.5632212892 11.035299702 1.78485236547
4551 1 25.7655796679 11.7325693458 2.8608224719
4554 1 24.132296194 9.67137599236 3.68338498547
5111 1 27.2461950717 10.9426200477 0.993860476517
5113 1 27.1086373714 9.77181078495 3.71343135287
5671 1 30.0366288741 11.0114321861 0.954867028521
5673 1 30.0934091767 9.71649895995 3.50568696407
5677 1 28.6430092341 9.12738882378 1.63468060997
5678 1 28.655720144 11.5788739104 2.92811390125
6231 1 32.8264315911 11.0253972157 0.913547097448
6233 1 32.8718485821 9.73070877757 3.47128208853
6237 1 31.4539783001 9.11025351581 1.55894952975
6238 1 31.4931946342 11.6351533386 2.8511714666
6798 1 34.2324830472 11.6409518777 2.83397151267
6797 1 34.2280747141 9.13995258801 1.52497956144
6791 1 35.5969858498 11.0501493753 0.882267923574
6793 1 35.6422545718 9.7505799368 3.43148862118
7357 1 36.9901287439 9.12598126252 1.47211742652
7358 1 37.0250224907 11.6754395996 2.79310047687
7351 1 38.3516054422 11.0745330347 0.791595131254
7353 1 38.3853945592 9.75308683547 3.38389000173
7911 1 40.9405159651 11.2209242945 0.750807785609
7917 1 39.7598137834 9.20532506093 1.41677198336
7918 1 39.5748499634 11.6869890081 2.75628388584
7913 1 41.3186588136 10.0393478738 3.39835460792
8477 2 42.1884936178 9.52644097481 1.1772429048
8473 2 45.3191177637 9.22038926997 1.51681713733
7914 2 43.6176285552 11.2244804907 3.55792516301
71 2 1.07487129147 11.8889526295 2.36528080185
706 1 2.8685022105 13.5830655772 2.17016411008
141 1 0.20448336995 14.0079445078 2.04277567239
769 1 2.31508179347 15.1275369509 0.41601224133
143 1 1.70697990064 15.691208479 2.90468133004
142 1 0.793407393802 12.5383593871 0.104084012709
631 1 4.4691584956 11.8404035972 1.56405796162
1191 1 7.1390263449 11.9032915565 1.55442397028
1262 1 7.16183962692 14.4517980851 0.296772559432
1269 1 5.80204335046 13.8053821103 2.27584204163
702 1 4.57661714729 14.4962378698 0.479198962402
1751 1 9.95650373028 11.9270962608 1.59370917065
1822 1 9.95801650981 14.4826049317 0.279876631453
1829 1 8.55789326411 13.8364049482 2.21891167726
2389 1 11.3610537759 13.8458612442 2.21751450634
2311 1 12.7608881566 11.9144444171 1.61755189868
2382 1 12.7672202553 14.4875879868 0.285538788216
2949 1 14.137979627 13.8403541185 2.21584188461
3431 1 18.3213695623 11.804706329 1.63051335678
2871 1 15.5000782172 11.8881880159 1.63768562039
2942 1 15.5788444001 14.4675034769 0.29918473253
3502 1 18.2884750633 14.365966977 0.305495045024
3509 1 16.8922433079 13.7738125616 2.25736930702
3991 1 21.1446384286 12.0296496717 1.70558715771
4069 1 19.4153177862 13.7192898279 2.23460316677
4622 2 21.3879694498 14.5500654397 2.53277546824
4062 1 21.2089353078 14.413153522 0.0359874384534
5186 2 26.1305370411 12.8110122539 0.609593893836
4626 2 23.476104317 14.295390297 0.3480875255
5187 2 26.188909803 15.6891540583 1.66835404667
5182 1 27.3484096774 13.5713962346 2.3919114374
5742 1 30.0815220823 13.519984079 2.24460301629
5747 1 28.7339898969 15.4590382989 1.64809767163
5746 1 28.6509176625 12.9089974343 0.395319482803
6302 1 32.8855402221 13.5815432734 2.210303556
6306 1 31.4342582049 12.9424053798 0.314698208882
6307 1 31.4762685464 15.4651343398 1.59453529257
6866 1 34.1945899408 12.9598168051 0.257914629385
6867 1 34.2741723093 15.5065471707 1.59758157638
6862 2 35.6093881581 13.4700146268 2.13218125272
7426 1 36.9617935992 12.9967675284 0.221218517896
7427 1 36.8911342006 15.5535747258 1.57789563762
7422 1 38.2992266954 13.6743917721 2.14718615471
7982 1 41.0184405253 13.3531448671 2.11074615244
7986 1 39.6691030205 13.0699056555 0.160888632275
7987 1 39.7159881128 15.5242392389 1.53304029202
77 1 43.5314801631 13.35122701 2.26887393638
8547 1 42.1813769609 15.3888951366 1.72368890075
148 1 42.5304256046 12.8746421454 0.284716838152
8605 1 43.8191849536 14.9546911581 0.211053013469
147 1 44.395225893 15.5921791249 2.98306728387
8543 1 0.225217923144 16.3148217622 1.08826899539
703 1 2.43685458441 17.4402008039 1.3290765213
701 2 3.60376334746 19.4919860847 2.40808164163
710 1 2.95938592265 17.7579985257 3.62210539225
779 1 0.303948171002 17.6449280936 3.12131295227
709 1 4.20272447911 15.7292061353 2.64548845885
1263 1 7.1678138835 15.7732230825 2.85337926938
1266 1 5.8481027165 16.4510308966 0.956662600788
1261 1 7.22746429157 18.3313450518 1.52676952791
1267 1 5.66573136952 17.7083059104 3.35812727666
1821 1 9.94181837007 18.3335555957 1.50738363467
1823 1 9.95824633777 15.7706038229 2.82805524322
1826 1 8.56472017528 16.3979407298 0.887011970043
1827 1 8.56694348582 17.698090408 3.46096817951
2386 1 11.3522625256 16.4114729049 0.889299399576
2387 1 11.3516290603 17.7038298848 3.44182233475
2381 1 12.7565193262 18.3276090531 1.5149788252
2383 1 12.7461324235 15.7763070085 2.82545308961
2946 1 14.1674136889 16.4090388585 0.894106621771
2947 1 14.1213546613 17.7221993749 3.44090525844
2941 1 15.5635254207 18.336330595 1.52968554876
2943 1 15.4851418815 15.7755101882 2.79637424854
3501 1 18.292831576 18.3417467847 1.58365891968
3503 2 18.0736142279 15.7803871164 2.93529971426
3506 1 17.0149707022 16.3766503797 0.916728210587
3507 1 16.835043323 17.7175797726 3.50009447357
4063 1 22.5866503549 16.3074832902 1.72621473834
4061 1 21.1851933707 18.3047682101 1.65646931333
4066 1 19.8462702425 16.178704663 1.62660151318
4067 1 19.5489633038 17.7075681013 3.52616536844
4696 1 23.3700338487 19.0464692927 0.715008004266
4628 1 23.2065052261 18.2131325842 3.19952262173
4621 1 24.766960484 17.3871241247 1.26169092096
5188 1 26.0584528421 17.9869401934 3.11258006466
5256 1 26.005003505 19.3208495721 0.498422418695
4623 1 24.541757428 16.1376316557 3.54608520373
5183 1 27.4003052995 16.0081787266 3.61566511559
5181 1 27.3917125278 17.4310135925 1.02188868792
5741 1 30.0667889625 17.3726578977 0.964339172027
5743 1 30.1566663312 16.083103037 3.53755572089
5748 1 28.784918009 17.9692328079 2.95024511626
5816 1 28.6972907512 19.3069368576 0.328507107632
6301 1 32.8471809087 17.3847440699 0.942559057756
6303 1 32.8973909344 16.10669222 3.50787372332
6308 1 31.487710893 18.0077763028 2.88348631788
6376 1 31.4255789237 19.3054557806 0.303219464462
6936 1 34.160712146 19.3417456558 0.260891958402
6868 1 34.2284249903 18.0351345087 2.84949843564
6861 2 35.5616971285 17.4881871569 0.791078022755
7428 1 36.9189873485 18.056613151 2.79926447927
7496 1 36.964684151 19.3345688619 0.225657779582
6863 2 35.5862785959 16.1959523948 3.67863621604
7983 2 40.8165377864 16.4420457718 3.55081573765
7421 1 38.330626285 17.4321200664 0.92356926816
7423 1 38.2978957051 16.2243548621 3.4560952063
7981 1 41.147201523 17.4747058906 1.10628152896
7988 1 39.6998754049 18.2585625627 2.89198745798
8056 1 39.7426200085 19.2839823091 0.2610711516
218 1 45.4805923381 18.6636358353 0.656073703786
8610 1 43.675718624 17.288521613 1.28800391559
8616 1 42.6851559196 19.3431227313 0.276414370816
8548 1 43.7078469381 19.4422540569 2.42462378001
213 1 1.19071445971 19.6647274517 2.45790313194
776 2 0.80956153745 20.7076982384 0.537989180173
220 1 1.48896372631 22.3451358217 3.34767012119
216 2 3.05893352773 22.6288535996 1.19901193639
280 1 0.904241499 23.1325688496 0.727573481236
772 1 4.36336630226 20.7857184049 0.304768758289
773 1 4.23769103538 21.8133446934 2.93090921194
1332 1 7.10983547325 20.8666610144 0.24551030674
1333 1 7.11257054014 22.1966051301 2.82366486834
1336 1 5.66452668309 22.7560983636 1.00021301363
1339 1 5.85111667651 20.1856752845 2.18082668253
1892 1 9.94820722969 20.8507042042 0.229109702203
1893 1 9.9771956362 22.1517868345 2.79879769024
1896 1 8.53932586685 22.7465037477 0.900506902318
1899 1 8.54779592514 20.2686043984 2.16831976692
2459 1 11.3347448656 20.2208967786 2.14137020622
2456 1 11.3409740715 22.7494204552 0.842716021806
2452 1 12.766955122 20.8528512877 0.228850356816
2453 2 12.7274534837 22.0872453386 2.68050334838
3016 1 14.124456723 22.7804899554 0.832981349733
3019 1 14.1576574689 20.2336953489 2.14554642486
3012 1 15.5897091235 20.928546386 0.257319798544
3013 1 15.5020000881 22.1923282255 2.74015253992
3573 1 18.4378971807 22.2387831579 2.71210568724
3576 1 16.9616653704 23.0023026949 0.850624669931
3579 1 16.9219835865 20.3139450373 2.17579158697
3572 1 18.3210233939 20.9825164861 0.378182268106
4697 1 22.3960795955 20.4474284736 2.25840364001
4139 1 19.7593727619 20.1308230666 2.26138937952
4691 1 22.7771296251 22.6521919385 1.62191288734
4133 1 21.370227401 22.1577832151 3.52750916661
4136 2 20.4714786514 21.9472317252 1.23826966301
4692 1 24.7374094849 19.9340298897 2.56375083131
5257 2 26.183305795 21.6811345126 1.72712693456
4693 1 24.3918684435 22.1549206535 3.55261166247
4755 1 24.4272716717 21.1308808698 0.234525560887
4762 2 24.2075999616 23.4705889272 0.143706123608
5252 1 27.4164145739 19.8653062522 2.38196757243
5253 1 27.2347655371 22.5436574642 3.59620445238
5812 1 30.0797338143 19.9210134307 2.26520075875
5813 1 30.0716330159 22.4890683244 3.52344296898
5817 1 28.7117898837 21.8173098165 1.66332111671
6372 1 32.8321274083 19.9383974771 2.21841056501
6373 1 32.8274872065 22.4956213526 3.48525266742
6377 1 31.4316100811 21.8594489647 1.57929388424
6937 1 34.1907463355 21.8726354621 1.53952129843
6932 1 35.5631695408 19.9547172681 2.16713174704
6933 1 35.5628373249 22.5268859048 3.46271802349
7497 1 36.9440688033 21.8819857614 1.51445295087
8052 1 41.205505904 20.097897537 1.95444139587
7492 1 38.283634377 19.9782849879 2.1381273478
7493 1 38.3277248448 22.4955221567 3.46385986312
8053 1 40.9996151294 22.3195743297 3.44489167679
8057 1 39.6990731331 21.8508503647 1.49092149063
8617 1 42.7486291756 21.9342955909 1.28938133368
8604 1 45.0400594239 21.3482446858 2.04258719036
8613 1 44.8682626498 23.0480463061 3.7073306333
8619 1 43.1090788685 21.397649947 3.70473450098
211 1 0.647450181821 25.1527910787 2.62997479259
849 1 3.08305989864 26.7893127475 2.46654797131
777 1 3.0816502627 24.202607907 3.25740200932
219 1 2.48837460118 24.9326572112 0.935552110992
288 1 0.125943063114 25.5597917678 0.192338413641
771 2 4.7183347157 25.0279276599 1.44090574689
1331 1 7.1753858929 24.6662828328 1.60995961536
1409 1 5.8980819624 26.7084068964 2.24212135018
842 1 4.34303562276 27.2212349527 0.338201998062
1402 1 7.27149823346 27.2426540921 0.240151496812
1337 1 5.6100671135 24.0805103723 3.64062294714
1891 1 9.97770412063 24.6292448601 1.52714800995
1969 1 8.65950548993 26.592533736 2.11566241171
1897 1 8.57531324349 24.0361294877 3.46682560615
1962 1 9.97803686297 27.2237513525 0.199496105159
2529 1 11.3120321553 26.5681506644 2.16875954137
2457 1 11.3526779817 24.025742094 3.46986184875
2451 1 12.6954877198 24.6567484518 1.51688475855
3089 1 14.0319106844 26.5905629655 2.16069403555
3017 1 14.0641364824 24.043229927 3.44884665725
2522 1 12.6880489549 27.220837209 0.216395514813
3011 1 15.3279503273 24.7165335978 1.51236107649
3571 2 18.7155195978 24.6100914874 2.09542623073
3649 1 16.9537763914 26.5117012844 2.04255113285
3577 1 16.8086108371 24.0563279292 3.37859796595
3082 1 15.403946695 27.2315512022 0.236728456239
3642 1 18.2880608602 27.3230217042 0.0944978794719
4131 1 20.8941575954 24.1012635533 1.62913582968
4209 1 19.8248738202 26.7638749113 2.24643932516
4202 1 22.2070286047 26.2251499251 1.77829891719
4698 1 22.6713044055 24.3470278801 3.46091073134
5329 2 24.3790409624 25.741205255 2.17765381485
5326 1 25.8605759167 25.2630944603 0.231023557233
4767 1 24.5730789538 27.1588730109 0.47746772288
5251 1 27.314815147 23.6623667412 1.00394180706
5811 1 30.0150070855 23.7706055286 0.926436364
5322 1 26.9513227637 26.2032549426 2.24384386583
5818 1 28.6741670628 24.4025826975 2.85084136729
5882 1 29.9876579716 26.3184179367 2.20478746562
5886 1 28.5286961872 25.6742766639 0.347717070924
6371 1 32.7959828292 23.7890715259 0.909709305646
6378 1 31.4239862359 24.4172526676 2.84594736919
6442 1 32.7952475181 26.3412027438 2.19828616635
6446 1 31.3894680704 25.7018332632 0.287493166227
7006 1 34.1839047418 25.7072789534 0.260011981274
6938 1 34.1856918978 24.4296249331 2.82759190885
6931 1 35.5763788633 23.7980045752 0.891524181826
7002 1 35.5833810426 26.3301513837 2.17532450008
7498 1 36.9707776708 24.4220907833 2.82568282494
7566 1 36.9824796978 25.7054347732 0.246349425078
8051 1 41.0603109881 23.725491804 0.940867489096
7491 1 38.3524436482 23.781042818 0.892169324069
7562 1 38.3930495638 26.304784416 2.17946269213
8058 1 39.7485767133 24.351202799 2.84789799431
8122 1 41.1696299013 26.1979918125 2.2552365169
8126 1 39.7379515694 25.6771054623 0.260739004324
8611 2 44.5374294852 23.7613129932 1.26359514747
8618 1 42.5890041762 23.9559919346 2.99507754841
8682 1 43.7555507117 25.8665565051 2.27123051482
8686 2 42.234263055 25.8167479189 0.276948049195
289 2 45.1813763958 27.4246158307 1.79808538824
282 1 1.56290714622 27.5556688467 0.83369320337
286 2 1.10935383142 30.0121920857 1.47771683639
846 1 3.15982278432 29.2914524703 1.02482920408
283 1 1.22698665047 28.5197225475 3.29421507791
847 1 2.91675654247 30.5110671207 3.32311771811
843 1 4.58275779825 28.64142425 2.84874080423
1403 1 7.33669864651 28.5322705868 2.84186084499
1406 1 5.92331028517 29.0952513677 0.909945378779
1401 1 7.29230711746 31.1211196829 1.48642524189
1407 1 6.03554918275 30.4435781251 3.46164411681
841 1 4.72541172152 31.0800112322 1.59364375295
1961 2 9.98197984505 31.0151566436 1.37908257008
1963 1 9.9921230794 28.5342082755 2.78772476227
1966 1 8.60798775612 29.1546534237 0.85386738092
1967 1 8.6695419678 30.4759318901 3.43562149138
2526 1 11.3525970162 29.1361379897 0.845691879089
2527 1 11.3159245826 30.430922861 3.42501137344
2521 1 12.6687321691 31.0818496122 1.51441079734
2523 1 12.665573118 28.5025807963 2.81003494248
3086 1 14.0445225646 29.1446315134 0.884032427482
3087 1 14.0577067981 30.3808594759 3.44421929236
3081 1 15.4361820388 31.0407563494 1.52015490821
3083 1 15.4527749019 28.4265746608 2.79146792733
3643 1 18.1995072472 28.4936778969 2.73416595552
3646 1 16.7772392293 29.0779405241 0.897553273764
3647 1 16.8133899254 30.3474469758 3.4155423291
3641 1 18.0924671003 31.012136364 1.52053488333
4208 2 20.7934507057 27.5053378812 0.330588645154
4203 1 21.6191628913 28.4807209969 2.69907897252
4206 1 19.5594623982 29.2707622863 0.839445671375
4836 2 21.7176395058 30.3174448008 1.09600858294
4207 1 19.8779991133 30.2789196752 3.12486638689
4768 1 22.8902749824 30.6819844007 3.09405242288
4761 1 23.7956061701 29.4379683569 1.08161652091
5327 2 26.057344363 28.514265831 1.57312453978
4763 1 24.2120051358 28.0507204221 3.05463457549
5328 1 25.5277546786 30.6526837502 2.26627830857
5323 1 27.0484725856 28.9456760212 3.58279211643
5321 1 27.4170459132 30.2286214098 0.916639974194
5881 1 29.9770904037 30.1337267753 0.954339869012
5883 1 29.9840049912 28.8814366898 3.5001327405
5887 1 28.5478391368 28.1869783226 1.65586458585
5888 1 28.6118275133 30.8002555845 2.90680466744
6441 1 32.8049021814 30.1520347871 0.913347783036
6443 1 32.8111022548 28.881788217 3.48350736434
6447 1 31.3911132552 28.2440943711 1.57643015531
6448 1 31.4198244233 30.7846871868 2.84872584745
7007 1 34.1965479935 28.2461773126 1.54232629485
7008 1 34.2156648415 30.787082957 2.81616345492
7001 1 35.5928075611 30.1538857091 0.87435785556
7003 1 35.6010684522 28.8672049014 3.45541812031
7567 1 36.9866928672 28.2213202671 1.51261498294
7568 1 36.991139996 30.7696790241 2.78785049749
7561 1 38.3897945331 30.1145467747 0.854256963775
7563 1 38.3600495263 28.8355706967 3.43715139328
8121 1 41.2937810158 30.0667955808 0.880272990784
8123 1 41.1838262367 28.7908482983 3.43071247765
8127 1 39.7768978573 28.221364446 1.54399357195
8128 1 39.7664333199 30.6955220273 2.77721965576
287 1 45.5769518398 30.8257699144 3.33205556453
8681 1 44.1321366478 29.8492590444 1.1283556897
8687 1 42.5753176246 28.0446337257 1.55060501832
8688 1 42.6503055901 30.6713420878 2.8064991701
8683 1 43.9411288499 28.6956381912 3.44245575948
281 1 0.956711612406 32.4531117741 2.1019520694
353 1 1.85119791732 34.6113290692 2.64671493588
919 1 3.31502198104 32.9684526971 2.03426739526
912 1 4.46451357033 33.7290866735 0.048240609849
913 1 4.51911502411 34.9919446555 2.76206005993
1472 1 7.31077373693 33.6472767732 0.247935968706
1473 1 7.34657750699 34.9397971205 2.82337938362
1479 1 5.96862110839 33.086545284 2.12643197515
2032 1 9.98461029786 33.6466713409 0.173958382533
2033 2 10.0550454671 35.0632969641 2.78122564359
2039 1 8.72954276227 33.0121937489 2.1793520061
2599 1 11.2602325347 32.9793780516 2.15157676998
2592 1 12.7056646771 33.6426168715 0.238073579539
2593 1 12.6557860651 34.8602931485 2.69611818102
3159 1 14.0674443474 32.9669732944 2.14518771291
3152 1 15.4942990737 33.6446343823 0.25578686739
3153 1 15.5128110055 34.8404609622 2.66502290797
3712 1 18.2882565946 33.5792665668 0.327380671572
3719 1 16.8446158438 32.9454253487 2.19066879575
3713 1 18.3183810162 34.8036031735 2.65590149242
4279 2 19.4753242259 32.8019321725 2.24422449386
4839 2 22.4788343535 33.0751948504 2.39432880432
4272 1 21.1934433958 32.7395525509 0.233973173566
4837 1 20.4967689158 34.8404330558 1.72272905727
4824 1 23.504333403 32.0185883037 0.594685175698
4838 1 22.9754969318 34.8496913491 1.23520495578
4832 1 24.679407142 32.8495070804 2.40973163799
5396 1 25.907857596 32.1262029346 0.379982701493
5397 1 25.8724156457 34.7460074937 1.68245002337
5392 1 27.2346237347 32.7195612277 2.28385134636
5952 1 30.0620531671 32.7102385824 2.24156882992
5956 1 28.6366158115 32.1267079003 0.369023626149
5957 1 28.6947216967 34.6445331275 1.63487635595
5953 1 30.1073662151 35.3031926365 3.49158823275
5393 1 27.3421907318 35.3450929335 3.49498562242
6512 1 32.8342615546 32.7097352305 2.19135071922
6513 1 32.8694660723 35.2848980622 3.45532130611
6516 1 31.4340085046 32.0578359494 0.309177700535
6517 1 31.4730052839 34.6515853831 1.5720665936
7076 1 34.1901574443 32.0833284786 0.238781131104
7077 1 34.2117699332 34.6312831799 1.50567440655
7072 1 35.6044959721 32.7009646757 2.15008386232
7073 1 35.6068423667 35.2656350661 3.43013719694
7636 1 37.006399421 32.060448627 0.230997265124
7637 1 37.0073073913 34.6028037452 1.51183136718
7632 1 38.3926536632 32.6314573592 2.1270154216
8192 2 41.135002062 32.4318712605 2.11212395755
8197 1 39.7529876489 34.5696532777 1.64376867129
8196 1 39.8341598187 31.9975568183 0.236047483823
8193 2 41.315658066 35.2282073102 3.44447713193
7633 2 38.2146741697 35.2864481919 3.4565205813
8753 1 45.4956020445 34.4399278191 1.38905481942
358 1 45.4014739801 31.6248447873 0.298626334242
8752 1 44.1011026612 32.5954306559 2.2277439758
8757 2 43.2625337301 34.5658064022 0.900434583301
8756 1 42.7293841791 32.026385215 0.311518606803
8761 1 43.7298011735 35.1827473046 3.2264647231
916 1 3.13438753579 35.5670789526 0.872084271503
356 1 0.20766884504 36.2747545331 3.15185235903
351 1 0.77981666267 38.5828428283 2.22251812755
917 1 2.80501435946 36.8442279152 3.15927174772
988 1 2.87585913781 38.1759332986 0.403638126858
414 2 1.04079272333 36.5935739667 1.1195292987
911 1 4.63174520144 37.4507559788 1.68680600756
1471 1 7.29140672159 37.482685053 1.5864452979
1476 1 5.91585270489 35.5447412613 0.893153582259
1477 1 5.92463190284 36.8474976721 3.55379966812
2031 1 10.0595786644 37.4777705951 1.55920773633
2036 1 8.65925650143 35.5753481161 0.881366375373
2037 1 8.69509308431 36.8505887814 3.49384143047
2596 1 11.3602060064 35.5673162046 0.820955555059
2597 1 11.5110771711 36.837495808 3.49508899846
2591 1 12.7472524942 37.4970362338 1.45855637352
3156 1 14.1336156378 35.5774559089 0.838934305049
3157 1 14.0839582872 36.7715799235 3.17708882738
3151 1 15.6209416452 37.4962296549 1.42136543369
3711 1 18.5949863664 37.2932786311 1.54725523481
3716 1 16.9646082479 35.5432934134 0.835671134479
3717 1 16.991640543 36.7365225387 3.20330522692
3789 1 17.0496343009 39.2352365908 2.34227839038
4276 1 21.3306417022 37.1269009131 1.07668846479
4277 1 20.1780811643 36.6147412901 3.31460918974
4833 1 24.4401942646 35.3949553481 3.66615445334
4902 1 22.9819482453 37.1665456298 2.81828655028
4831 1 24.5115722855 36.5976900391 0.975578921837
5398 1 25.9171597953 37.2426130097 2.82628366277
5466 1 26.0208212074 38.3768397091 0.307166776159
4907 1 24.5288462465 39.1649933317 2.18821425174
4906 1 23.1782578517 38.4334813502 0.170432010138
5391 1 27.3700465951 36.5383542384 0.91814446475
5462 1 27.3596755715 39.1480958803 2.23637719666
5951 1 30.0777502274 36.5645936454 0.897747758515
5958 1 28.7309396933 37.2249692326 2.82100983916
6022 1 30.0999409051 39.1436450345 2.18305657848
6026 1 28.6913718782 38.4863473378 0.255973967344
6511 1 32.8283489196 36.5713239948 0.871244990588
6518 1 31.4907425697 37.2105755668 2.79871386846
6582 1 32.8549891658 39.1388103405 2.17669923994
6586 1 31.4450467117 38.5057501539 0.245696952876
7146 1 34.246809853 38.4944254582 0.260782308743
7078 1 34.2474279336 37.2045510626 2.79505690641
7071 1 35.6249718933 36.5508314397 0.883871438309
7142 1 35.6486340297 39.1244710953 2.17785252971
7638 1 36.9960038456 37.206265668 2.80721169473
7706 1 37.0709163615 38.4583358484 0.284726178264
7631 1 38.4601337278 36.5200673377 0.966250585885
7702 1 38.4454339654 39.0717232974 2.20702909474
8191 1 41.3550830008 36.3938600782 1.07631825461
8198 1 39.822886446 37.1333246747 2.85817775298
8266 1 39.8893873502 38.4226336323 0.344297764101
8262 1 41.1775436684 39.1083306209 2.24907474621
8751 1 44.2423802464 36.8255326701 1.30859247284
8758 1 42.5018936543 37.345705478 3.03644548493
8826 1 42.5840588046 38.4269231281 0.373242473975
8829 1 43.9731817365 39.0937309467 2.15964578442
989 1 3.1209599138 39.4266934087 2.40892570918
423 1 1.62580779447 41.1893853902 2.93619489718
986 1 3.15073765284 41.9633765138 1.07371425895
422 1 1.47793914974 40.3968784838 0.373550406082
987 1 3.07283726589 43.1074782076 3.27984977553
982 1 4.50108201616 40.0488742552 0.463039218257
983 1 4.58118125573 41.2747330719 2.87878296291
1542 1 7.28421340224 40.0422854426 0.331905242758
1543 1 7.35995479627 41.3096487326 2.80537844775
1546 1 5.92517193167 41.958160061 0.942126395164
1549 1 5.92094984143 39.386438932 2.33777986193
2102 2 10.0414408487 39.9362112091 0.335638194866
2103 1 10.0813411207 41.3524503647 2.78328704144
2106 1 8.70556364398 41.970023171 0.893773876265
2109 1 8.70056735781 39.3935223379 2.21606480605
2666 1 11.4235201046 41.9546448432 0.895594179165
3229 1 14.2090770145 39.3244025695 2.24546951396
2669 1 11.4404825879 39.3908481777 2.20871995551
2662 1 12.7848102781 40.0086664855 0.281456724694
2663 1 12.7763746414 41.2775188892 2.8436611823