ITEM: TIMESTEP
8000
ITEM: NUMBER OF ATOMS
8960
ITEM: BOX BOUNDS pp pp pp
0.0 45.68
0.0 51.0717926061
0.0 44.6878185303
ITEM: ATOMS id type x y z
569 1 3.1548833009 1.33676417534 2.22816168351
2 1 1.5056183266 2.04570161081 0.173328922791
566 2 3.24507115935 3.52552377519 0.692594100293
3 1 1.30639913742 2.93535848219 3.63537591628
8465 2 1.39978284275 0.197682047942 1.62756267437
562 1 4.52732904111 1.63841677862 0.23684965189
563 1 4.39428188564 3.17221917504 2.8580523876
1122 1 7.19988041933 1.71198312672 0.297713460926
1123 1 7.1959733866 3.11937139816 2.88478419813
1126 1 5.8235522285 3.66508630156 0.917516018081
1129 1 5.87750134375 1.23979489614 2.27030368359
1682 1 10.01261392 1.78236691963 0.329726880999
1683 1 9.97329250967 3.10407216661 2.87072146083
1686 1 8.56963065989 3.68457621512 0.94131165862
1689 1 8.59525083822 1.18715677144 2.24738827335
2246 1 11.3896650464 3.72475803465 0.966412008664
2249 1 11.3979326417 1.20475989729 2.25131562994
2242 1 12.8212478523 1.82960950001 0.332302960555
2243 1 12.7501364866 3.11961023315 2.91898567132
2809 1 14.15927545 1.20067761568 2.32081317574
2806 2 14.1043371497 3.78689832353 1.07063660382
2802 1 15.4749576813 1.87557056314 0.431086143694
2803 1 15.598543824 3.10877927543 2.89619241048
3362 1 18.2306143213 1.63602106606 0.340022261625
3363 1 18.1690288781 2.81884377092 3.04604341488
3369 1 16.8314993439 1.09689468283 2.34120399816
3366 1 17.0851618234 3.74222444342 0.944321209188
3929 1 19.647467817 0.964201897112 2.35580929364
3923 2 22.3890798698 3.50144790165 1.63635335156
4489 1 22.3491435781 1.31207406229 2.6115955022
3926 2 19.490180641 3.22973865937 1.23662117178
3922 1 21.1090181192 1.88312271386 0.0573803980368
4487 1 23.8374508363 2.56341097397 0.371969721166
4482 1 24.6276628502 0.782409959369 2.33920272449
5047 1 25.8918627662 2.74944374657 1.58097933387
4483 1 24.189229233 3.35922049073 3.32996165184
5046 1 25.7943327631 0.334187989482 0.228955320235
4486 1 23.3301069461 0.156077082128 0.368051921278
5042 1 27.2504562243 0.796038669626 2.2066303129
5043 1 27.2276531712 3.33507406634 3.53141376399
5602 1 30.0627337901 0.802821925261 2.21110700204
5603 1 30.0325527171 3.3103218872 3.48380907719
5607 1 28.6152075151 2.68706291422 1.5896244217
5606 1 28.6652344397 0.199329991017 0.292001071541
6162 1 32.8334665626 0.804978407612 2.21464848948
6163 1 32.7940121193 3.34366696599 3.45911525862
6167 1 31.4329417966 2.72283970664 1.5612319911
6166 1 31.4620104184 0.196770901065 0.285603917636
6726 1 34.2507406718 0.167331952548 0.309149836622
6727 1 34.2601968849 2.66883230308 1.58795301941
6722 1 35.6592842964 0.775375970314 2.2282226363
6723 1 35.637453273 3.31366087251 3.49204159524
7287 1 37.0585030247 2.69502345372 1.58475812784
7286 1 37.0802332309 0.169316923465 0.316594755867
7282 1 38.4818303882 0.790299608997 2.22910462906
7283 1 38.452848412 3.29908372436 3.47684317578
7842 1 41.3058487736 0.853989484128 2.29591436088
7843 1 41.3202612075 3.31962479586 3.46364541452
7847 1 39.9231117947 2.69132573943 1.59824592878
7846 1 39.9231384066 0.217639823818 0.309179337759
8401 2 45.4332521272 2.97122970117 1.78872477654
8407 1 42.9697153802 2.76240438877 1.29832024186
8402 1 43.8555970134 0.751352063296 2.63875322509
8406 1 42.6280659062 0.251985826291 0.460747384447
8 1 44.9789263254 1.01057218738 0.566177940628
8403 1 43.9363938251 3.1518200405 3.5520237324
6 1 1.50444524531 4.74098253176 1.40855431944
639 1 2.77288064267 7.37564995051 2.20978094837
567 1 2.80859500057 5.01895160185 3.54869599275
1 1 0.0914898444088 4.83941615188 3.4005039023
561 1 4.2987124609 5.55609571701 1.56307215784
1121 1 7.16530263339 5.61825227641 1.57076415769
1199 1 5.70937787869 7.47829040214 2.20491519157
1127 1 5.7663040985 5.04603014962 3.48520661244
1681 1 9.94926255279 5.63656383388 1.5863396625
1759 1 8.54405564117 7.55156900913 2.19854020692
1687 1 8.56237697517 5.03084774439 3.50912846443
2247 1 11.3342599025 5.05260352457 3.52049884563
2319 1 11.3188719951 7.57730408398 2.22691674353
2241 1 12.7313304323 5.68994783245 1.6183505818
2879 1 14.1564358769 7.58528983313 2.24289108247
2807 1 14.1630452071 5.04757212665 3.51971397366
2801 1 15.5659298207 5.66640298095 1.61345527551
3361 2 18.1329516057 5.92520970195 1.74973907436
3439 1 16.8538998897 7.65174289185 2.3206508109
3367 1 16.9308723936 4.98814386786 3.52859930794
3921 1 21.8690841718 5.90415471278 1.90955622798
3927 1 19.7012081805 4.61795110372 3.49606808154
4559 2 20.5631520637 6.63372439617 3.65019106992
4481 1 24.2076915046 4.94719592287 0.846092711662
4552 2 23.800864164 5.80627144542 3.0353411516
5048 1 25.9038483205 5.1159201002 2.790469227
5116 1 25.952697184 6.64580733963 0.476149889263
4557 1 23.5445544255 7.76596270665 1.62710339031
5041 1 27.2165126511 4.60097946839 0.891314280585
5112 1 27.386548606 7.12247227365 2.22731665842
5601 2 29.880277752 4.46786391148 0.845039986699
5608 1 28.6789009174 5.21692354544 2.83990468657
5672 2 29.9762522342 7.3522450959 2.13432077458
5676 1 28.658812922 6.47287169333 0.285080508097
6161 2 32.9704077963 4.57149623249 0.932387434994
6168 1 31.3349515098 5.2437000081 2.7795521016
6232 1 32.778805303 7.1013917834 2.19381016231
6236 1 31.4079774872 6.43522581717 0.316260482652
6728 1 34.2093414886 5.22690999751 2.85537747716
6796 1 34.2266214972 6.48606503279 0.313314587776
6721 1 35.6477060327 4.59300458565 0.94971178147
6792 1 35.6199608685 7.11614990255 2.20814877934
7288 1 37.0436530788 5.22166242517 2.84364105306
7356 1 37.0664631266 6.47509686803 0.324717798231
7281 1 38.4994970289 4.60539631055 0.950833246626
7352 1 38.478909752 7.13507278145 2.20855861838
7848 1 39.8680120334 5.21954374625 2.87644480642
7912 1 41.2302345069 7.15964316268 2.29781832647
7916 1 39.9289342623 6.5081558197 0.309165948075
7841 1 41.3324085583 4.55644284575 1.01536095291
8408 1 42.7106745057 5.281248052 2.95525612868
8472 1 44.2679702687 5.02570596481 1.22775785235
8404 2 44.8481176787 6.68476098075 2.80506826507
8476 2 42.5404645001 6.34587546208 0.374695786836
72 1 1.45666468767 8.07787043701 0.164310549232
73 1 1.51174803423 9.48054282353 2.77651468407
636 1 2.90578182645 9.9069937489 0.82648408124
637 1 3.02268221916 11.2904663534 3.43527295624
71 2 1.69637370099 11.6884682164 1.44627110508
632 1 4.28379862985 8.04917664254 0.259252953992
633 1 4.29155348321 9.34433360532 2.81223813084
1192 1 7.10922190478 8.15887002651 0.286128021806
1193 1 7.10029485033 9.4253865557 2.80257230964
1196 1 5.65401233993 10.0649989215 0.9171549321
1197 1 5.73326483043 11.2977753411 3.44213939407
1752 1 9.93983225526 8.20093415613 0.288235215527
1753 1 9.93987552241 9.49397666268 2.80784843648
1756 1 8.49541263457 10.0810397594 0.934830463557
1757 1 8.50077682225 11.3816222489 3.47374944457
2316 1 11.3336391356 10.1198586863 0.92143440866
2317 1 11.3150720799 11.403500151 3.48345499442
2312 1 12.7360988394 8.21997510028 0.32039964184
2313 1 12.7163074225 9.49134495166 2.86656766888
2876 1 14.1638795575 10.0964473822 1.00802206403
2877 1 14.1428837399 11.4005530604 3.5390221673
2872 1 15.5782591263 8.19002556241 0.331471030747
2873 1 15.5452564492 9.53875089124 2.92168478392
3432 1 18.4426765342 8.23499872372 0.579746681086
3433 1 18.4234054664 9.50255156246 2.78979872645
3436 1 16.9656509719 10.1172478252 1.01488606029
3437 1 17.1070146432 11.3440611733 3.66681776654
3999 1 20.8054213393 8.06536314371 1.83184531345
3993 1 22.1270768553 9.96260514453 2.51969004402
3996 1 20.0252757549 10.2916597356 1.03074889063
3997 1 20.0354201268 11.3278638899 3.23898067094
3992 1 22.0516800997 9.03717416487 0.10260190803
4551 1 24.0009274893 10.5236952362 1.07407858577
5117 1 25.8160790578 8.8732898595 1.51248954233
4554 2 24.2523952212 8.89264020445 3.39754433914
5111 1 26.2938907686 11.3313881758 1.89015835091
5118 2 23.9631888656 11.7578994722 3.10335729634
5113 1 27.004553102 9.51690348394 3.54089667895
5671 1 30.101529889 10.9647917709 0.887408080298
5673 1 29.9966369586 9.6030470682 3.43244368126
5677 1 28.4124811081 9.25818140315 1.50309187868
5678 2 28.6237504902 11.311261076 2.77065144283
6231 1 32.8441692902 10.9416988285 0.8942833215
6233 1 32.7881470633 9.64825423698 3.46090999319
6237 1 31.4365002485 9.04102051187 1.52954074936
6238 1 31.404962792 11.5790656142 2.78813366726
6797 1 34.1913471326 9.01988310187 1.57326033702
6798 1 34.194643127 11.5497787199 2.82647102117
6791 1 35.6085153545 10.9202281837 0.899818295189
6793 1 35.5846647768 9.63960106399 3.4655633297
7357 1 37.0274991836 9.023036003 1.57506426187
7358 1 36.9780231045 11.5334835103 2.83024449867
7351 1 38.3619409687 10.9414316639 0.909262276233
7353 1 38.4004332856 9.62123706403 3.4718345987
7911 1 41.1996281297 11.1416661337 0.997080154504
7917 1 39.8339215063 9.07343773929 1.54497311261
7918 1 39.599855507 11.5730236625 2.83839349325
7913 1 41.1876370816 9.75816073777 3.5583437996
76 1 44.3280286823 7.87517365069 0.612469166242
134 1 45.5941918441 9.98775924499 0.335934092656
8477 2 42.1731606558 9.17950168967 1.63474550365
8473 2 44.9911172668 9.60045595871 2.39254372313
706 1 1.82853612242 14.0158179197 1.14184326818
149 1 1.40117440263 13.0860977744 3.65263217368
709 1 3.51184750301 14.4509840291 2.61321783501
631 1 4.27021783547 12.0828210527 1.56196169207
1191 1 7.09297256687 11.9888987233 1.54473131766
1262 1 7.1144560229 14.5272067788 0.253984084895
1269 1 5.77531394257 13.9404623299 2.15459392358
702 1 4.17109218481 14.5391825306 0.173050146003
1751 1 9.91038019241 12.005118721 1.56822978896
1822 1 9.9377597899 14.5155465204 0.307960812922
1829 1 8.49855278258 13.9309040162 2.20688926434
2389 1 11.3332807915 13.9098814094 2.23762000506
2311 1 12.7419996832 12.0060157189 1.60856896044
2382 1 12.7516327143 14.5209968546 0.352443893773
2949 1 14.1640663318 13.9093025907 2.29905963197
2871 1 15.5894029555 12.0042533168 1.69445860427
2942 1 15.5630056185 14.5437392407 0.429204565296
3431 1 18.357716728 12.0284992884 1.67040493136
3502 1 18.3921732781 14.50472652 0.453514764639
3509 1 17.0184125242 13.8987967117 2.37961139391
3991 1 21.8893724504 12.530803647 2.0029531578
4069 1 19.8981620745 13.8776948702 2.37419965231
4062 1 21.6247112072 14.4865242537 0.129411130485
4622 2 23.3935201949 14.6305619046 2.1536290526
5182 2 26.1687437118 13.6044521558 1.33100201807
5742 1 29.9480683958 13.4877561092 2.13724831003
5747 2 28.7778951534 15.6543335726 1.45751403096
6302 1 32.8411138793 13.5078710429 2.18436115088
6306 1 31.4775114184 12.8937317186 0.285156872937
6307 1 31.4361618035 15.4209756339 1.57641735103
6866 1 34.23731069 12.8662803249 0.253488655492
6867 1 34.2801965343 15.4085328657 1.59120461132
6862 2 35.6018457951 13.3658159852 2.14200597256
7426 1 36.9969813948 12.8626969608 0.235544555675
7427 1 36.9332783674 15.4211036619 1.56646578135
7422 1 38.2724608157 13.504857832 2.15867794572
7982 2 40.9156358815 13.4485741903 2.38630131877
7986 1 39.7661950912 12.9314935862 0.30316665552
7987 1 39.6416440109 15.4192308026 1.56311554148
8474 1 45.2289585888 11.8073575717 2.10363617041
77 1 43.2076810672 12.9949829384 1.8601792062
141 1 45.1667209573 14.5109541872 1.85535035575
8547 1 42.4613945939 15.3080280215 1.65182728189
147 1 43.9743390137 15.7133602544 3.47999331369
143 1 1.31442764815 15.82166348 2.91842460464
8543 1 0.916872341155 16.6380899765 0.720407648725
213 1 1.92683984772 18.3288908927 2.46232301443
703 1 3.30483180081 16.6370027681 1.1848312055
710 2 3.43302390114 16.5190720753 3.49088700476
701 2 3.81006603293 19.1907504835 1.641271574
1263 1 7.12396147691 15.8827983309 2.85236406197
1266 2 5.81444957008 16.4283760092 0.827212835996
1261 1 7.24549510673 18.3742091695 1.61311925618
1267 2 6.03164707198 17.9968978637 3.67740913706
1821 1 9.94018268758 18.379899491 1.60373869844
1823 1 9.92954120646 15.8389536921 2.8663069436
1826 1 8.5321129815 16.4403959183 0.940852643903
1827 1 8.57313492961 17.775552978 3.53872978289
2386 1 11.3463755368 16.4549079871 0.962406253134
2387 1 11.3536982442 17.7618423178 3.51714290547
2381 1 12.7721859124 18.379606298 1.60344551422
2383 1 12.7573929238 15.8361819046 2.89009337034
2946 1 14.1743773326 16.4720311579 0.988040465463
2947 1 14.1775333423 17.7676243569 3.516039955
2941 1 15.6308779421 18.4021322094 1.6280540715
2943 1 15.5773440404 15.8454336106 2.90059711513
3501 1 18.3697972817 18.4315693971 1.57031787033
3503 1 18.3491331028 15.810629314 2.94801564418
3506 1 17.0138457404 16.4594086002 1.00799196902
3507 1 17.0193799203 17.7708257821 3.54907142824
4063 1 22.5308057168 16.4839745871 1.36976597773
4627 2 20.7192163586 16.1341334538 3.01949611202
4061 1 21.1069265383 18.4085389433 1.67703416531
4066 1 19.7866607407 16.3876788924 1.0014925287
4067 1 19.5538163022 17.8856070571 3.59915399484
4628 2 23.1814172633 18.4428783708 2.91443222841
5187 1 25.2798602832 15.9133433083 1.27928504547
4621 1 24.267515672 18.1224020051 0.940382631324
5188 1 25.869660637 17.9521103408 2.87864353092
5256 1 26.0542821858 19.3915035782 0.276485151099
4623 1 24.4095563127 16.2124812626 3.5073656182
5181 1 27.1824494233 17.3375522384 0.940364265703
5183 1 27.2077244337 15.9912777869 3.44725984239
5741 1 30.0804231664 17.4070690546 0.915109105442
5743 1 30.0114847391 16.0487605723 3.47810001246
5748 1 28.6169670174 17.9258115697 2.85535955155
5816 1 28.5843425411 19.2823387188 0.261797110905
6301 1 32.8716816273 17.3115625586 0.91407099586
6303 1 32.8501423485 16.0277707153 3.47699372441
6308 1 31.4589323442 17.9419027198 2.85286776775
6376 1 31.4454388615 19.2545189802 0.25343677642
6936 1 34.2364938218 19.2258909025 0.224044508402
6868 1 34.2280087558 17.943798302 2.83447634019
6863 2 35.5948034864 16.085515865 3.70358422824
6861 2 35.6095981425 17.3287017691 0.894121718223
7428 1 36.9452870492 17.9625461802 2.82785604759
7496 1 36.9823009907 19.2257826108 0.208743444748
7983 1 41.0099169325 15.8394737767 3.42507451856
7421 1 38.3330707267 17.3454583079 0.925023184037
7423 1 38.2822708409 16.0542027542 3.48626317302
7981 1 41.1565786693 17.3084243989 1.1136881333
7988 1 39.6949110334 17.9229668484 2.89229705119
8056 1 39.8272595484 19.2240305129 0.267237488831
218 1 -0.00309039809219 18.7573447238 0.797013726584
8610 1 43.975974805 17.1186913891 1.25271331642
8544 1 42.5917284169 17.8455806756 3.2101100867
8616 1 42.5948082553 19.1671084738 0.430528261954
779 1 45.4448363788 17.701640242 3.30877186599
776 1 1.90035279973 20.4786972912 0.744852748015
220 1 0.34830305786 20.4478090636 2.58659233657
216 2 0.909164109164 22.3548328474 1.26052593041
772 1 4.32996263047 20.9685371851 0.383552759651
773 2 4.33759476671 22.136369915 3.11633259221
1332 1 7.09144931692 20.8898036523 0.352996776506
1333 1 7.11738400758 22.2426149452 2.93841097266
1336 1 5.73132877076 22.8079028162 1.05864719313
1339 1 5.82541721841 20.2803995333 2.29023218101
1892 1 9.95730927546 20.912316857 0.334789784071
1893 1 9.98929459158 22.2173818987 2.89513716866
1896 1 8.52796395281 22.8126003279 0.993707586644
1899 1 8.55930558081 20.3415835546 2.24049890205
2459 1 11.3736110425 20.2972851851 2.24054489765
2456 1 11.3968771958 22.8067006257 0.982694214895
2452 1 12.8149819047 20.9092849819 0.330325023853
2453 1 12.8058901578 22.1967262644 2.8764560469
3016 1 14.2524154692 22.8122399512 0.986659509591
3019 1 14.2116436668 20.2914640529 2.22180027379
3012 1 15.7262744157 20.9367297381 0.290405031015
3013 1 15.5288914106 22.1958180561 3.01213617645
3572 2 18.4435954941 20.5271509088 0.0527193677296
3573 1 18.475358468 22.3794065266 3.09171611112
3576 2 16.8232245939 22.887165359 1.36736612133
3579 1 17.0687668384 20.4064493028 2.21629455365
4697 1 22.531189391 20.3955117936 1.87342464057
4139 1 19.8141235879 20.4301596427 2.20361808869
4691 1 22.4750971137 22.9220687057 0.980304608358
4133 1 21.5175727672 22.1187913942 3.39709930587
4136 2 20.0455163561 22.894595764 1.47805696728
4132 1 21.1577759113 20.9928385331 0.0647333849039
4692 1 24.8071573346 20.0083282385 2.37578201985
5257 2 26.0377651926 21.7110337477 1.4449235528
4693 1 24.0858003317 22.2417255069 2.67702104113
4762 1 24.7236475741 23.3271840675 0.177963141689
5252 1 27.2788980874 19.8644655018 2.31271672526
5253 1 27.0912077645 22.481858851 3.48370961599
5812 1 30.0182540053 19.8338452688 2.20311105065
5813 1 30.0283927873 22.3936434986 3.47625611298
5817 1 28.6304141923 21.7455215058 1.56344354744
6372 1 32.8435026061 19.8429197666 2.16697780678
6373 1 32.7982548539 22.4126537761 3.44958788937
6377 1 31.4035297407 21.753193962 1.52845918976
6937 1 34.20370685 21.7647911288 1.51577132578
6932 1 35.5921827182 19.8525505173 2.15519623685
6933 1 35.5673721881 22.4296396185 3.44781426932
7497 1 36.9705365816 21.7706715785 1.51139359852
8052 1 41.0964900582 19.7843829343 2.2701460521
7492 1 38.3345193838 19.8559867913 2.14080459285
7493 1 38.3244871746 22.4728119644 3.44761539768
8053 1 41.1110415748 22.4104121319 3.51567778951
8057 1 39.8062094661 21.7718272249 1.54575775873
8548 1 43.8754884281 19.6450742637 2.31167162265
8617 1 42.5791145294 21.6074378358 1.78530896951
8604 1 44.7606617064 21.009752632 0.407192361031
8680 2 43.3705876331 22.8702158952 0.107090105918
211 1 0.744881878293 26.0285471305 2.45044348668
849 1 3.13163879531 26.5061393139 2.2121153444
777 2 1.99227646946 24.4325662816 3.3449194792
219 1 2.02695344257 24.3227268876 0.89543066061
282 1 1.7292366303 27.407855285 0.608917043909
771 2 4.48064232725 24.7902450131 1.29486199589
1331 1 7.1756336974 24.7383635366 1.6446796992
1409 1 5.82495001311 26.6497844228 2.31714303351
842 1 4.47570393871 27.3923136967 0.408533838481
1337 1 5.75814792939 24.1829511744 3.5335968359
1402 1 7.24999213462 27.3109655069 0.401441939816
1891 1 10.0092324487 24.7099305385 1.61557695888
1969 1 8.6680282731 26.6588536748 2.24137948773
1897 1 8.60586507076 24.0944108666 3.54061416856
1962 1 10.0360851632 27.2773951353 0.346235495743
2457 1 11.3896275777 24.1175624325 3.5427005471
2529 1 11.4020559782 26.6431268318 2.28148235811
2451 1 12.8099010202 24.7153345953 1.64335784416
3089 1 14.1289062606 26.6749556538 2.3299413603
3017 1 14.1375810425 24.1378471162 3.59357938944
2522 1 12.8153502389 27.2675318 0.359483233546
3011 1 15.5303249424 24.780523693 1.71808098926
3571 1 18.4059571342 24.8177590651 1.67988941324
3649 1 16.9478140515 26.6915513394 2.26512528104
3577 1 16.9730159243 24.157360868 3.58979521116
3082 1 15.4666752269 27.3730778416 0.404329780836
3642 1 18.3929461373 27.355191075 0.36231285731
4131 1 21.119795776 24.8679596842 1.41471038871
4209 1 19.7213555669 26.7606447998 2.27896361747
4202 1 21.924351503 26.5634257012 2.85386830566
4698 1 22.6905622228 24.2719242663 3.20371853908
4134 1 20.0033831831 24.3596180625 3.59022794982
4208 1 21.4112208465 27.386393286 0.533647698826
5329 1 23.4837555528 25.4979464519 1.21525960883
5326 2 25.8613171582 25.248040128 0.723117065709
5251 1 27.3207712876 23.63197396 0.945372893632
5811 1 30.0071130217 23.689666321 0.917089692662
5322 1 27.2911177231 26.2449434628 2.26227055998
5818 1 28.6922703763 24.2897463005 2.85946508995
5882 1 29.9727009704 26.2629885587 2.21673266732
5886 1 28.5571415809 25.6039089786 0.297093782813
6371 1 32.7786368787 23.6840861144 0.89604688325
6378 1 31.4011453095 24.3341449129 2.83551928784
6442 1 32.7661502289 26.254313482 2.20165573671
6446 1 31.3682996004 25.6221951326 0.285758048384
7006 1 34.1510037227 25.5984611264 0.254951072229
6938 1 34.1613180534 24.3334104402 2.82599983228
6931 1 35.5699459245 23.6864675494 0.885416087984
7002 1 35.5367644891 26.2356271397 2.17256586959
7498 1 36.9373987975 24.3448899869 2.82161214499
7566 1 36.9544394373 25.5819470699 0.236750998461
8051 1 41.2479191782 23.6869524041 0.957591321262
7491 1 38.3766309648 23.6822045451 0.916332463537
7562 1 38.3366541387 26.2115638552 2.15432919988
8058 1 39.7703880069 24.3289744526 2.82799117186
8122 1 41.1632704923 26.1781163649 2.16693910633
8126 1 39.7563918692 25.5778537577 0.237971584598
8611 2 44.6569837546 24.1347595768 2.91817283337
288 2 45.6167590284 25.7032000494 0.432896336134
8618 1 42.4618122638 24.2117187397 3.1391057961
8682 1 43.811876429 26.1301139573 2.16781636892
8686 2 42.3182226635 25.7621547153 0.10181437112
286 2 1.00680861321 29.6357587631 1.0512312202
846 1 3.17528882104 29.3515729061 1.10669979992
283 1 1.52358255296 28.510138455 3.16438340613
847 1 3.19589760843 30.6473847531 3.5738428116
843 1 4.4506724452 28.537745343 2.97733192113
1403 1 7.23653475869 28.5291364702 2.9672634525
1406 1 5.88433022622 29.2359047022 1.05232905559
1401 1 7.31375984915 31.1739712 1.61399060342
1407 1 5.98140668995 30.5106503771 3.53452657304
841 1 4.60647696504 31.1971774343 1.71719392109
1961 1 10.0628736019 31.1608206312 1.63237617516
1963 1 10.0488693205 28.5896174116 2.9217725016
1966 1 8.66618190885 29.2146448995 1.03049050656
1967 1 8.6594646677 30.5041793107 3.54637746941
2527 1 11.4238352178 30.5420557427 3.55742463768
2526 1 11.4351807986 29.2160728494 0.993843962112
2521 1 12.8142551865 31.177147024 1.63637200127
2523 1 12.7797684263 28.6018581184 2.93944952671
3086 1 14.1514732883 29.2534402949 1.0123678531
3087 1 14.183627165 30.527896769 3.58128833732
3081 1 15.5696449762 31.1451506847 1.65383271501
3083 1 15.5488376549 28.5911740371 2.93235871548
3643 1 18.3189423559 28.5975133217 2.892779231
3646 1 16.9289952367 29.2204104528 1.00540468233
3647 1 16.9273580948 30.5032542168 3.61511922579
3641 1 18.2553840672 31.0887378147 1.66181755086
4203 1 21.1560113333 28.8719335177 2.94881492271
4201 1 22.2573827097 29.6537913894 0.903720586762
4206 1 19.7869464372 29.2622797983 0.981567548397
4207 1 19.5259580772 30.5076326186 3.59482322287
4836 1 21.0149516797 31.2899163308 1.87020492579
4767 1 23.5893345759 27.9088615578 1.81683033544
4768 1 23.1717196986 30.5609008417 2.91999648112
4761 1 24.6506833999 30.1581482179 1.03661964448
5327 2 25.9799067492 28.2680509218 1.66479620502
5328 1 25.7722014545 30.9496996398 3.10690223622
4763 1 24.9570519472 28.7856691925 3.60664791043
5323 1 27.3466070165 28.8691567307 3.58121245743
5321 1 27.1837365564 30.1228872963 1.04621340632
5881 1 29.9905364664 30.1024731023 0.973267691214
5883 1 29.9873310978 28.8298126991 3.52282210359
5887 1 28.575340214 28.1870952529 1.58855630201
5888 1 28.6396525451 30.7796934338 2.90658798169
6441 1 32.7891485023 30.0900890257 0.942430676789
6443 1 32.7881439706 28.8277243335 3.49627984361
6447 1 31.3716150236 28.1785375778 1.57982251389
6448 1 31.4092206505 30.7546700426 2.88180612558
7007 1 34.1500640904 28.1547859832 1.55058071578
7008 1 34.1982478104 30.7449422877 2.85116480639
7001 1 35.5149347729 30.0580783565 0.885321236685
7003 1 35.5347091049 28.7808990547 3.476266505
7567 1 36.9178470082 28.1243899272 1.51621008485
7568 1 36.8759242418 30.6517714302 2.83581817193
7561 1 38.2666743523 30.0188242986 0.862718915363
7563 1 38.3026700838 28.7602941369 3.42706708373
8121 1 41.1022807315 29.9313431478 0.776651252834
8123 1 41.0577008138 28.697426101 3.37326498568
8127 1 39.6942915995 28.1025540318 1.48939060789
8128 1 39.6619151709 30.6162684426 2.72565922317
289 1 45.1755616799 27.9990757202 1.52080677678
8681 2 43.687919618 30.0455518917 0.862526163173
8687 1 42.5101777641 28.0293868224 1.35378586767
8688 1 42.4144229687 30.5701604819 2.75740332097
8683 1 43.689121705 28.73261297 3.28496907685
281 1 1.57677392019 31.8966496516 1.77428555367
353 1 1.67784630076 34.6103820814 2.8216858122
919 1 3.4126922844 33.2031575092 2.23988635059
918 1 1.74790009585 33.838878281 0.168387773177
912 1 4.62142659251 33.7822037192 0.28713842649
913 1 4.65885809878 35.0758663708 2.95407105351
1472 1 7.32324400914 33.7570057281 0.286158747546
1473 2 7.36677701 35.0571518557 2.82788257425
1479 1 6.01794596841 33.135384861 2.23311787885
2032 1 10.0972381494 33.7460950345 0.318539496378
2033 1 10.0631591331 35.049450722 2.87289513918
2039 1 8.7088800575 33.1018201034 2.22689083805
2599 1 11.4351413008 33.1070179874 2.26084675282
2592 1 12.8491136221 33.7161198999 0.338324447217
2593 1 12.8278241207 35.0314359373 2.87274019987
3159 1 14.2215398862 33.0963892299 2.26985942422
3152 1 15.6527624291 33.7094987708 0.340518728548
3153 1 15.6136407963 35.0330130285 2.87140369759
3712 1 18.341932345 33.6139058722 0.41234657255
3719 1 16.9324137123 33.056705746 2.3016341322
3713 1 18.2497043043 35.0150219569 2.93662396156
4279 2 19.5992485044 32.9526695615 2.36945737187
4839 1 22.0881044366 33.3421396575 2.67529343248
4837 1 20.1137793224 35.1920176305 1.5685993945
4272 1 21.1042882447 33.3078247448 0.355884344707
4824 1 23.0575756831 32.1409723292 0.530506555155
4838 1 22.974604326 34.8165082226 1.06434713171
4832 1 24.440054873 32.8664129176 2.25673436048
5396 2 25.8696639178 32.1385291866 0.707940988659
5397 1 25.6840547919 34.8884980588 1.72432092311
5392 1 27.2661745628 32.7711268795 2.3699829174
5393 1 27.2018371475 35.2730444689 3.5760663383
5952 1 30.0333951836 32.7108763028 2.29070278765
5953 1 30.0592802491 35.2851394129 3.56534877057
5956 1 28.5862376593 31.98692503 0.481724810044
5957 1 28.6412868821 34.6863261596 1.72820769943
5455 1 27.2295798931 33.9992862124 0.0233676623809
6512 1 32.822045933 32.6822958789 2.25069522443
6513 1 32.8562186372 35.2546971359 3.52555286679
6516 1 31.4373404511 32.0081922882 0.371087350923
6517 1 31.4543788722 34.6344895214 1.64222300382
7076 1 34.1843004833 32.0329289321 0.289540363897
7077 1 34.2154758099 34.6067522684 1.57689769688
7072 1 35.5679457677 32.6726720337 2.18766373534
7073 1 35.6273159019 35.2432254826 3.47799469752
7636 1 36.9186019135 32.0008427767 0.233339700103
7637 1 37.0722514321 34.6047595158 1.59408917857
7632 2 38.1078177805 32.400799898 2.13092905262
8192 2 41.1755778595 32.263908009 2.10157990062
8197 2 39.7417637891 35.0976709617 1.7359599811
8196 1 39.7039032462 31.8462580517 0.213483675876
8752 1 43.6674988217 32.5085754201 1.95650208072
8753 1 45.365106082 34.139004683 1.37201939491
8757 1 42.2953504243 34.5030399504 1.48538050315
8756 1 42.4193861945 31.8246371759 0.120180313394
8761 1 43.6634635511 34.9494576641 3.47711567705
359 1 45.314407216 33.1513719205 3.50419211156
358 1 45.3367933937 31.7549354957 0.318815882036
916 2 3.32657472816 35.6037624897 1.15429134813
356 1 1.07552619042 36.2332475137 1.08128188608
351 2 1.82651584207 38.2372556611 1.66360489268
917 1 3.20616409102 36.9996095807 3.38163256888
911 1 4.65183369023 37.6255860425 1.59057240029
1471 1 7.38008268111 37.6303451663 1.54792388519
1476 1 5.96649317083 35.6856982771 0.941831637691
1477 1 6.04927679467 37.0160559696 3.46245429928
2031 1 10.102828195 37.6075775542 1.56623862037
2036 1 8.73179743681 35.6818193624 0.920903993259
2037 1 8.70356204937 36.999498022 3.50794237748
2597 1 11.4553123199 36.9705092473 3.49996744401
2596 1 11.4807470718 35.6715825353 0.943031905626
2591 1 12.8761719582 37.5947504275 1.5491844914
3156 1 14.252735435 35.6321730272 0.949595875234
3157 1 14.1917035546 36.9625357442 3.48896953996
3151 1 15.6240368683 37.533239384 1.62373949173
3711 1 18.6371450605 37.4241181907 1.56087377932
3716 1 17.1308336491 35.6314450208 0.938276776661
3717 1 17.0192257744 36.9544294118 3.45970501447
4276 1 21.6104248206 37.0817469246 1.14171192355
4273 1 21.82371746 35.6964532843 3.34929155877
4277 1 19.8352907809 36.9003095201 3.55813950203
4902 2 23.7358410546 36.6304207052 2.53129592691
4831 1 24.4879451435 36.8293190691 0.51657530431
5398 1 25.8891022137 37.2035075985 2.80825275019
5466 1 25.9334144435 38.5984550389 0.182271499482
4907 1 24.3785774915 39.1177694207 2.03186347973
5391 1 27.2901441242 36.5867249405 0.899140251614
5462 1 27.2314454053 39.1218089608 2.15286074417
5951 1 30.0146541031 36.5199891431 0.906931194179
5958 1 28.6259589692 37.1807375865 2.85043479176
6022 1 30.03447151 39.0812238561 2.1871587816
6026 1 28.6850223384 38.4486995 0.251953445399
6511 1 32.8262846968 36.5213812247 0.918676638449
6518 1 31.4462183288 37.1658614164 2.83730497091
6582 1 32.8559767919 39.0730429049 2.19109917262
6586 1 31.4302599254 38.4359545613 0.293815360897
7078 1 34.243812078 37.1619289576 2.83480097364
7146 1 34.2617223917 38.437366899 0.296926656704
7071 1 35.6480637211 36.5038241698 0.933219959127
7142 1 35.6361030019 39.100396657 2.18557170589
7638 1 36.971823649 37.2252962606 2.86227716689
7706 1 37.0081455474 38.4639062981 0.245927140645
8193 1 41.1674242674 35.3726787793 3.5241247138
7633 1 38.3411941996 35.4000413213 3.5825835513
7631 1 38.3734437615 36.6401168863 0.93376170531
7702 1 38.4436663922 39.0759513577 2.15098915511
8191 1 41.3341088801 36.7757513315 0.95931869764
8198 1 39.8560988984 37.3014956345 2.84725835045
8266 1 39.8402827883 38.4521947412 0.136865213544
8262 1 41.2190965847 39.1571599237 1.8648051089
8751 1 44.0430846487 36.2513922994 0.993983089718
8758 1 42.7521914634 37.1230014682 2.86771143148
8822 1 45.0928788671 38.1531507126 2.10832867518
8826 1 43.0554238234 38.4441535649 0.423911951595
357 1 45.4807872247 36.1568832672 3.21030018763
989 1 3.40736816864 39.6522452699 2.20538332431
423 1 1.63029651065 41.638541436 2.82952243993
986 1 3.21791967573 42.105692696 0.871686732928
426 2 0.87327873257 41.8012788547 0.639696655401
422 1 2.08134713625 40.04257644 0.0981417262506
982 1 4.56469029006 40.1802516408 0.153858920705
983 1 4.56986031783 41.554536016 2.78930789965
1542 1 7.37999673675 40.1907134739 0.258793322687
1543 1 7.32927126285 41.4984014795 2.80534600295
1546 1 5.94929967091 42.1294444573 0.857141142026
1549 1 5.97182023404 39.5836540445 2.14111731076
2102 1 10.1350158772 40.1833144169 0.245958783969
2103 1 10.0974615501 41.4834683279 2.84589216157
2106 1 8.75468126709 42.1054093174 0.924978551701
2109 1 8.7396097685 39.564370022 2.18512390547
2669 1 11.469726252 39.5355665221 2.19810944761
2666 1 11.483411749 42.0764777842 0.94022824072
2662 1 12.8781428306 40.1417452873 0.263450659058
2663 1 12.8402057618 41.440706115 2.87207700408
3226 1 14.2512427979 42.0313115813 0.973492649644
3229 1 14.2470667253 39.5008035184 2.19882934647
3222 1 15.7124231289 40.1106412222 0.27539338263
3223 1 15.6300450931 41.3648790766 2.87927306755
3786 1 17.0277139407 41.9873564084 0.981622213094