ITEM: TIMESTEP
16000
ITEM: NUMBER OF ATOMS
8960
ITEM: BOX BOUNDS pp pp pp
0.0 45.68
0.0 51.0717926061
0.0 44.6878185303
ITEM: ATOMS id type x y z
569 1 2.93908675013 0.837295700444 2.28486197197
2 2 1.86371541584 1.71528822299 0.186012778591
566 1 3.01263205209 3.47646789075 1.04976030634
3 1 1.62603369076 2.83348297752 3.14808182682
8465 2 0.476004183127 0.921759717345 2.65580024001
8401 1 0.154761849505 3.00790494048 1.16752433415
562 1 4.40831969275 1.55056512853 0.352153436954
563 1 4.4189980639 2.83284654529 2.89757424987
1122 1 7.27154051626 1.64785108553 0.360483677842
1123 1 7.24032347587 2.9179749893 2.90777963299
1126 1 5.82771364326 3.49613641726 0.986465380243
1129 1 5.83882438207 0.996076332496 2.25112677588
1682 1 10.0869013499 1.68285801753 0.348825732118
1683 1 10.087037599 2.97026200849 2.91440455149
1686 1 8.65838546773 3.56455589155 1.01066402657
1689 1 8.70237613756 1.07145738204 2.25984444477
2246 1 11.4470972696 3.58913716966 0.988536603764
2249 1 11.5004590499 1.09039071244 2.24450901696
2242 2 12.8399062562 1.65006149314 0.171969595771
2243 2 12.8388482467 3.01920454503 2.89376747544
2809 1 14.220703552 1.14467784153 2.18025108478
2806 1 14.2295348957 3.60212271041 0.954765809718
2802 1 15.6745843301 1.73633125122 0.269735495339
2803 1 15.6019318334 3.01904866245 2.92871609904
3362 1 18.6451660699 1.74194240686 0.608803046552
3363 1 18.5609966514 3.55670713078 2.89031322143
3369 1 16.9811079724 1.13879589483 2.26228677326
3366 1 16.9295123403 3.59678187003 1.00341430348
3929 2 19.0534079034 1.47776024236 3.22598111253
4489 1 22.3606416822 0.793437178826 2.78933567124
4411 2 21.0010883614 0.645624523956 0.714246245607
3926 2 20.3307118518 3.77595903072 1.13045592741
3923 2 23.4573787567 2.53443611392 1.42046009818
4482 1 24.7319405604 0.84450284334 2.19318499368
5047 1 25.9533751147 2.7669230867 1.51131402459
4483 1 24.360687093 3.44749324205 3.39465996912
4486 1 23.3430718625 0.322640785301 0.193366289466
5046 1 25.9138393687 0.127651114568 0.112544055778
5042 1 27.2566946479 0.804576048176 2.147691013
5043 1 27.266607404 3.3627037859 3.47185055119
5602 1 30.0625413432 0.849112814481 2.14794101852
5603 1 30.075668205 3.38108356209 3.42271872959
5607 1 28.6686255494 2.75930370643 1.55101174545
5606 1 28.6287445889 0.126342887243 0.25518748715
6162 1 32.8619063041 0.86050819396 2.16120887153
6163 1 32.8395427125 3.38153704857 3.42807672674
6167 1 31.4400676511 2.75848726986 1.49003492996
6166 1 31.4780126924 0.204088888455 0.267058402755
6727 1 34.2738461238 2.76505735812 1.56903132226
6726 1 34.3043922624 0.184270803388 0.29413781368
6722 1 35.7104926046 0.842727654554 2.17977807601
6723 1 35.6807531781 3.38717336104 3.45725118066
7287 1 37.0855847708 2.7428266579 1.53603936211
7286 1 37.1504809238 0.240957191171 0.273535615234
7282 1 38.6029279312 0.844590249298 2.14170606814
7283 1 38.4237425949 3.45279515116 3.47552946108
7842 1 41.4448972886 1.28164560714 2.18699599524
7843 1 41.2061738311 3.57844139391 3.6521168116
7847 2 39.7093899764 2.92368240986 1.64009540299
7846 1 39.9651357408 0.0234359299261 0.137886949162
7841 1 41.7490289564 3.77487756664 1.37210300808
8407 1 43.4635899954 2.43286462628 0.674610061946
8402 1 43.9391109859 0.897776863471 2.45371965627
8406 1 42.5847283266 0.133613333392 0.324285395749
8 1 45.1477482795 0.690828808187 0.353868964557
8403 1 43.5532982191 3.30693976129 3.00945826994
6 1 1.53258372334 5.28595185541 1.61905250027
639 1 2.98572343002 7.24642453013 2.17684374417
567 1 3.0257397169 4.71664653534 3.52907828636
561 1 4.44844188204 5.38032824589 1.61397756177
1121 1 7.22011568005 5.43280254157 1.63051456241
1199 1 5.80395793621 7.32606169573 2.28343861386
1127 1 5.82097284684 4.80662330586 3.53242330074
1681 1 10.0420674978 5.46895868275 1.64834979162
1759 2 8.5923444828 7.37488037729 2.27216974368
1687 1 8.63119776866 4.84085172105 3.54794907105
2319 1 11.3846139609 7.4088610677 2.28211756914
2247 1 11.4297979087 4.89616691204 3.56913162747
2241 1 12.8055044009 5.4909803048 1.64695104881
2879 1 14.1656653926 7.4332684155 2.28234319391
2807 1 14.193527798 4.93154260226 3.56567491118
2801 1 15.5583577064 5.53631314137 1.59612893849
3361 1 18.4941394316 5.50064835158 1.39210932623
3439 1 17.0267675785 7.35990384573 2.26711731918
3367 1 16.8209115993 4.99349345638 3.49354302076
3921 1 21.3284720231 5.84969507756 1.42480057238
4559 2 21.093237 7.42894766117 3.02464054697
4481 1 24.3430131023 4.45211807994 0.582128273641
4552 2 23.7948372503 5.72245234591 2.29025593688
5048 1 25.9401664603 5.19560236945 2.81210980038
5116 1 25.6915901933 6.50269517736 0.658941056455
5119 1 25.2196011298 7.52491084992 3.43327880266
5041 1 27.2712171378 4.67584051571 0.881168887728
5112 1 27.2999423238 7.25111199475 2.27228749579
5601 2 30.0452092702 4.80252005111 0.988025259955
5608 1 28.6360377973 5.2969518546 2.84573144653
5672 1 30.0307649827 7.23086404954 2.20708843797
5676 1 28.5887059128 6.63790241729 0.300294425519
6161 1 32.8383416794 4.66934714145 0.930132467696
6168 1 31.4564957272 5.30099316099 2.83923395141
6232 2 32.8348788488 7.22569884299 2.20744708817
6236 1 31.4527770186 6.59884790911 0.300114351822
6796 1 34.2261778195 6.59539486653 0.288970144346
6728 1 34.2345472204 5.29257588826 2.83807503338
6721 1 35.6298856442 4.69151651063 0.95169212134
6792 1 35.5907255091 7.2500618871 2.22032456696
7288 1 37.004867697 5.36342897516 2.86965233278
7356 1 36.949949307 6.68152399512 0.309470402519
7281 1 38.2503824333 4.78477993746 0.969191064581
7352 1 38.4428778344 7.26815608848 2.22820848747
7848 1 39.9487481513 5.32322927976 2.6071111291
7912 1 41.1898935867 7.3130084193 2.13511455306
7916 1 39.6944244467 6.76289236703 0.250210427286
8476 1 41.8532088016 5.82208197248 0.435528816008
1 1 45.6607908228 4.60505642082 3.30050187277
8408 1 42.8611793435 5.53881495057 2.99216209342
8472 1 44.2414522988 4.65989568221 1.09894296162
8404 1 45.5820359051 6.90475599367 2.53866017184
76 2 43.7319886151 6.7588679337 1.14369479669
72 1 1.42491211734 7.98784172897 0.377940774094
73 1 1.55023438729 8.93065536859 3.10850743681
636 2 3.00384762219 9.68457533437 1.13651469107
637 1 2.78846202075 11.0409681594 3.47929715388
632 1 4.42442140251 7.91648806705 0.374652301712
633 1 4.34555253837 9.1951446205 2.96488809159
1192 1 7.19173989181 7.99998150926 0.36645580357
1193 1 7.15927395638 9.27418588595 2.90206557187
1196 1 5.75791539817 9.87158676613 1.0189565182
1197 1 5.724674197 11.1516575923 3.48608921234
631 1 4.31824968242 11.7819809087 1.51409927204
1752 1 9.98667078137 8.03547304461 0.366621168583
1753 1 9.95006561181 9.32271290561 2.8944514152
1756 1 8.54449304858 9.93879360291 0.971522065745
1757 1 8.51466333108 11.2176792702 3.49972682091
2317 1 11.3092405055 11.2519864267 3.52546658459
2316 1 11.3373705712 9.96562952996 0.996209752373
2312 1 12.7671416509 8.04729575923 0.365916174558
2313 1 12.7496657865 9.34947903008 2.91622180229
2876 1 14.1509522218 9.97217308576 1.01387467547
2877 1 14.1576962711 11.2598430257 3.57799183324
2872 1 15.5534910386 8.01476619979 0.37105991671
2873 1 15.5632022381 9.3389342824 2.92075723579
3432 1 18.4931352551 7.9995738064 0.386842112191
3433 2 18.1563817688 9.37441009896 2.64091325325
3436 1 16.857655744 9.99852008478 0.950269681925
3437 1 16.917408234 11.2870042208 3.58415136151
3999 1 21.2526658989 8.41553685411 0.742148586789
3993 1 21.7821368839 9.84297635468 2.77330615382
3996 1 19.6376713369 10.1283247919 1.06554055463
3997 1 19.6867978877 11.0055933081 3.43049507036
4557 1 23.332688243 7.91144090661 1.92353459236
3992 1 23.2083003823 10.0479522941 0.771818445219
5117 1 25.7685673593 9.10568120682 1.64560919798
4554 1 24.2584256567 9.69877600366 3.3758161663
5118 2 23.2810553784 11.71120417 2.52638598564
5111 1 27.1522524124 11.0088989678 0.938803852132
5113 1 27.025318207 9.74721892027 3.63579167261
5671 1 30.0206717227 11.0479857643 0.940915416516
5673 1 30.0374623326 9.74882077352 3.45985364206
5677 1 28.5696802434 9.16115018488 1.58566500347
5678 1 28.6000678 11.619106388 2.82608847162
6231 1 32.8243309019 11.0404403694 0.932644136026
6233 1 32.8276617859 9.75514678241 3.48071855308
6237 1 31.4259786415 9.13366256837 1.55833213549
6238 1 31.4531810046 11.6675854242 2.83563997084
6798 1 34.201771638 11.6634898055 2.86606510054
6797 1 34.2178786895 9.156651675 1.56866061166
6791 1 35.58963176 11.0765069313 0.938853288423
6793 1 35.6076821367 9.78086000148 3.49467661344
7357 1 36.988109561 9.17724335258 1.58722186402
7358 1 37.0179873378 11.6896914543 2.86444041335
7351 1 38.3698658139 11.1168914409 0.908981079149
7353 1 38.445641714 9.79663494228 3.48773963676
7911 1 41.1201070933 11.1822587177 0.785699756403
7917 1 39.7244846077 9.21599257773 1.52511720726
7918 1 39.7141208633 11.7506799106 2.8174465017
7913 1 41.2257241916 9.90145473684 3.51115178542
8477 2 42.0101004961 9.29440188455 1.43713344846
8473 2 45.4064551332 9.14567316349 1.88908777874
8474 2 43.8274332177 11.4086266057 0.481539896619
71 2 0.816482336194 12.1514420755 2.29959359033
706 1 2.76735986147 13.5892711203 2.07128199582
141 1 0.256283811437 14.2862790756 1.79979438459
769 1 2.20941372 15.0832637722 0.242930689653
1191 1 7.1103579268 11.8266213081 1.54548510283
1262 1 7.0189838589 14.4436348364 0.295809788047
1269 1 5.72545090103 13.6031671618 2.28315453937
702 1 4.50096174793 14.5753100517 0.533430656218
709 1 4.26305974925 15.5637423715 2.79131817793
1751 1 9.89309616375 11.8834526723 1.59641024699
1822 1 9.85334218579 14.4457323854 0.302374041955
1829 1 8.45005958488 13.8042470822 2.2045538038
2389 1 11.273608927 13.8082066612 2.23314124878
2311 1 12.718840984 11.8910317258 1.63943621751
2382 1 12.6770509725 14.443518935 0.344286807839
2949 1 14.1006005609 13.820319755 2.2846287152
2871 1 15.5102866523 11.9272250282 1.66333917397
2942 1 15.4876015782 14.426166591 0.389945801986
3431 1 18.2802752511 11.973796587 1.72983533628
3502 1 18.2740871243 14.4476393986 0.427617624606
3509 1 16.9451576696 13.8114589329 2.3762029956
3991 1 21.1290383671 11.9926497442 1.63222406534
4069 1 19.7653791946 13.8136619044 2.53484796936
4062 1 20.8480388795 14.3954293619 0.476615593607
4622 1 22.5149228335 13.9654143367 2.33115639343
4551 1 25.7231313891 11.8106724329 2.79270788468
5187 2 25.7953531818 15.6988120867 1.47192213087
4626 2 22.9345978662 13.8173557569 0.148239644959
5186 2 25.9412228528 12.8581330738 0.552165154181
5182 1 27.2998101495 13.6836552557 2.27565871964
5742 1 30.0375332615 13.555368007 2.21836828012
5747 2 28.8327800699 15.5386082206 1.43171195121
5746 1 28.6014503333 12.9672619308 0.362449569248
6302 1 32.8611986405 13.6026222123 2.21554306036
6306 1 31.4405187637 12.9560252455 0.32014972765
6307 1 31.4595937754 15.4793411943 1.57056720138
6866 1 34.1941011316 12.9805808526 0.281470134013
6867 1 34.2607969287 15.5147812512 1.59279852706
6862 2 35.5987842368 13.473338469 2.16764495262
7426 1 36.9757219067 13.0288767923 0.29481613763
7427 1 36.8912296777 15.5376396119 1.58525219567
7422 1 38.3639282922 13.6868532438 2.24404300608
7982 1 41.0872026826 13.6248210627 2.27750551895
7986 1 39.7290299625 13.0786748101 0.27819130867
7987 1 39.7639262702 15.5699464905 1.57072843168
77 2 43.539050615 13.8497171711 2.16288604851
8547 1 42.2025408223 15.6535579544 1.63569070086
148 1 42.3917925077 13.0796564507 0.317965249734
8605 1 43.7256757576 15.1458119238 0.0339913541779
143 1 1.52497893627 15.9985529576 2.86451028606
8543 1 0.361497730832 16.6655950923 0.892354793363
213 1 1.31068946933 18.9278490369 2.49028213607
703 1 3.14246789644 17.1371548373 1.38525112766
701 2 3.70480158309 19.3350063196 2.47938490913
1263 1 7.05263372948 15.7231824898 2.85844854954
1266 2 5.72751084949 16.6049065238 1.05869177439
1261 1 7.17470692075 18.3273343988 1.56677222435
1267 1 5.53783339378 17.6891549766 3.37940024859
1821 1 9.83840753109 18.2882686995 1.53918114314
1823 1 9.85280691007 15.7331355867 2.83940999593
1826 1 8.43971030709 16.3593737254 0.910293150466
1827 1 8.47360850508 17.6635998759 3.49602097865
2386 1 11.2472817843 16.3647908644 0.928394615141
2387 1 11.2676376073 17.658095492 3.46602827143
2381 1 12.6600308651 18.2710311268 1.55730004675
2383 1 12.6620567504 15.7342732474 2.85868097021
2946 1 14.0733715462 16.3488886922 0.981743319066
2947 1 14.0629581034 17.6713407204 3.47727689044
2941 1 15.4416038095 18.2924625018 1.59759959086
2943 1 15.4979087138 15.7363764795 2.91330365098
3501 1 18.2479773825 18.2684841082 1.53800813504
3503 2 18.1377978723 15.8421684264 2.82717786398
3506 1 16.8228313357 16.3696104798 0.958159769063
3507 1 16.8604896826 17.7006283964 3.46995699681
4063 1 22.4526288683 16.1979934673 0.995295757207
4627 1 21.5357182906 15.9165735514 3.22475930104
4061 1 21.1662290089 18.2815099569 1.43677121393
4066 1 19.7208419915 16.3272638291 1.1338836121
4067 1 19.7540467548 17.6508221401 3.33212930627
4696 1 23.2711252617 19.1296875368 0.315017280421
4628 1 22.8934695507 18.0296116791 3.09851063947
4621 1 24.491830532 17.3703738602 0.943348084618
5188 1 25.8478857194 17.8991212199 2.89627711569
5256 1 25.8683210056 19.3522116608 0.327758728444
4623 1 24.3249652117 15.9290514591 3.2531303853
5183 1 27.2880896826 15.9616693053 3.41321426618
5181 1 27.2660638839 17.4039868281 0.92759757153
5741 1 30.0846142407 17.4173703173 0.897874212018
5743 1 30.0806917496 16.0829505223 3.46883304831
5748 1 28.6677101426 17.9275028892 2.81619420815
5816 1 28.6488794781 19.2903547944 0.279625005766
6301 1 32.8296995739 17.3924237452 0.919100243783
6303 1 32.8578620135 16.1143964634 3.48159916144
6308 1 31.4442234116 18.010462931 2.84147836677
6376 1 31.4229358904 19.3252382866 0.267244690962
6936 1 34.1492118829 19.3527739801 0.24685669956
6868 1 34.1993944255 18.0326855542 2.81841236517
6861 2 35.5557884168 17.4906284598 0.779711932436
7428 1 36.9270075182 18.0226691888 2.7927888235
7496 1 36.9361743325 19.3522920376 0.210410163425
6863 2 35.5690694981 16.1968011265 3.66196447238
7983 1 41.1413065283 16.2827001937 3.61278185985
7421 1 38.2961579055 17.4116433568 0.859719160613
7423 1 38.3281239771 16.1042509163 3.46298599381
7981 1 41.0731914304 17.5767343132 0.930961778443
7988 1 39.6027226785 18.0613883828 2.7459377632
8056 1 39.6798421728 19.3857196812 0.292828732699
147 1 44.3600396291 15.8021710911 2.81409797208
218 1 45.355071909 18.9085448142 0.654688392634
8610 1 43.6838931832 17.4359866391 1.00341611662
8544 1 42.5084520287 18.0670200678 2.973918636
779 1 45.0042704374 17.9580506495 3.1369802416
8616 1 42.5820750049 19.4951443188 0.382488245597
776 2 1.22026776661 20.4875130604 0.812762250516
220 1 1.27399717724 21.9247408795 2.82613194297
216 2 2.96778641083 22.7424273621 1.12559040193
280 1 0.879930955072 22.900403987 0.00468838599459
772 1 4.2255994918 20.7503516978 0.350298646644
773 1 4.13579960924 21.7771656803 2.89408450106
1332 1 7.04450555924 20.8418571721 0.282101616256
1333 1 7.0765690136 22.1765157862 2.87434682423
1336 1 5.60400795321 22.724231416 1.0326372046
1339 1 5.7971732496 20.2208445636 2.21189386925
1892 1 9.86581288964 20.8127560409 0.266218531124
1893 1 9.94227922874 22.110871351 2.83641247422
1896 1 8.47994260373 22.7220875224 0.944144712004
1899 1 8.48415948844 20.2434705092 2.20730055657
2459 1 11.2605660657 20.1695221235 2.1745004984
2456 1 11.2797692373 22.7100853048 0.886153550759
2452 1 12.6784068035 20.8034500385 0.267032746669
2453 2 12.6846619126 22.0332872659 2.71907010323
3016 1 14.0568217594 22.7061778033 0.889045529779
3019 1 14.0716017133 20.1724953811 2.17386429498
3012 1 15.4729165491 20.7891961265 0.242593896872
3013 1 15.4221318341 22.0879407987 2.82023715207
3573 1 18.3598999807 22.2247815551 2.7068627329
3576 2 16.6446734151 22.7174620687 0.987231974057
3579 1 16.9144383174 20.2670552938 2.12378675719
3572 2 18.1736745905 20.3519894779 0.0140469212169
4697 1 22.2040845078 20.5125638863 1.88692620017
4139 1 19.7050048522 20.2269189067 1.99785881415
4691 1 22.4615051061 22.9249472238 0.641522334573
4133 1 21.3497679786 22.3421708188 3.1150817379
4136 2 20.3446334846 22.2521800224 1.02199519394
4692 1 24.571470215 19.8681263533 2.31482807875
5257 2 25.9968481117 21.7537785832 1.37903196815
4693 1 23.7527882842 22.2073618061 2.51503359634
5252 1 27.2703855705 19.8452133052 2.2281758151
5253 1 27.2192502685 22.4484670517 3.45627145495
5812 1 30.0185810791 19.9088119915 2.19821002074
5813 1 29.9963239989 22.4698728708 3.4786962677
5817 1 28.6259756872 21.8226348779 1.56294586347
6372 1 32.8032681666 19.9398876622 2.19099619128
6373 1 32.7761451286 22.4979471452 3.45591197745
6377 1 31.3972459185 21.8519788921 1.55061287046
6937 1 34.1612653722 21.881402404 1.52280545257
6932 1 35.5475002222 19.9480115207 2.15669097963
6933 1 35.5325197586 22.5245703542 3.43803045018
7497 1 36.8939125632 21.8983671106 1.4914672595
8052 1 41.1257841488 20.0341899369 2.22015361715
7492 1 38.2250237288 19.9748170058 2.13027732758
7493 1 38.2448111504 22.5201939852 3.42002756405
8053 1 40.981646734 22.4551645183 3.36493359801
8057 1 39.6445249481 21.8404930696 1.49520552252
8548 1 43.8238993915 19.9676792624 2.3546396847
8617 1 42.5865326707 21.9882315144 1.53605924465
8604 1 44.8011800379 21.3348145568 0.723178139147
8613 1 44.523992966 22.4683679767 3.23634002746
211 1 0.887264912761 25.6849985515 2.54465768644
849 1 3.08047795159 26.8011305268 2.59385508155
777 1 3.01935449458 24.1398075009 3.19584198446
219 1 2.451431707 24.9168544025 0.845056620067
288 1 0.11020852268 25.6173106237 0.171397223519
771 2 4.70241283947 25.0339599796 1.4558436524
1331 1 7.15353951994 24.6469838512 1.66065527593
1409 1 5.89209122064 26.6834112644 2.33120384492
842 1 4.33278276078 27.22190858 0.42914961481
1402 1 7.25533747175 27.2484661606 0.342685876869
1337 1 5.64565020595 24.0524008202 3.62711384731
1891 1 9.95084242018 24.5996656133 1.57029921411
1969 1 8.6606063479 26.5743917013 2.18729147634
1897 1 8.58056198077 24.0015499989 3.51376065665
1962 1 9.9558394488 27.2006471259 0.266922280758
2529 1 11.314360975 26.5264291047 2.22564788321
2457 1 11.3458053977 23.9792255032 3.5109969713
2451 1 12.6766071524 24.607734988 1.56500009238
3089 1 14.0202988482 26.5411399488 2.22222576539
3017 1 14.0468813436 23.9924960204 3.49948518262
2522 1 12.6715459603 27.1912319583 0.2750622099
3011 1 15.2931335028 24.6648360138 1.53956039422
3571 2 18.6932108177 24.6097787344 2.50856632968
3649 1 16.9118285547 26.4563423716 2.09386676335
3577 1 16.7262218293 24.0062609117 3.39627099701
3082 1 15.3753959926 27.2334908336 0.301891915115
3642 1 18.2943513477 27.2901012554 0.106194675296
4131 1 21.0014517711 24.6496269788 1.36082869757
4209 1 19.7292491719 26.7163298505 1.98917238161
4202 1 22.331777378 26.721929801 2.40930170336
4208 1 21.3050091363 27.1411431181 0.137242856624
4698 1 22.7424123987 24.4055968442 3.14200935652
4134 1 20.5074976872 25.1683350273 3.68905570976
5258 2 25.0635329784 23.6080291048 3.65500210925
4762 1 24.6101453019 23.9009104932 0.980687352718
5329 2 24.3755318912 25.9659939565 2.02677290014
5326 1 26.0281802297 25.8027989597 0.286677575744
4767 1 24.1556252306 27.4517077449 0.0691305389388
5251 1 27.2929273529 23.8007773502 0.925927675882
5811 1 30.0261324464 23.7650521719 0.905735753105
5322 1 27.2461990375 26.2871422314 2.24073375136
5818 1 28.6579068578 24.3779458969 2.81982760781
5882 1 29.9786485835 26.3557185969 2.20456560017
5886 1 28.6850417204 25.693324305 0.274770614363
6371 1 32.7605096414 23.8058104747 0.887678524828
6378 1 31.377916011 24.4217983595 2.8279106031
6442 1 32.7451975845 26.3640108023 2.16985978996
6446 1 31.3709330383 25.7403027639 0.254375887505
7006 1 34.1374071586 25.7426516062 0.231267044783
6938 1 34.1413309851 24.4418351993 2.79711282765
6931 1 35.5293178832 23.8244006927 0.864277139869
7002 1 35.5330068763 26.3678336743 2.13444108653
7498 1 36.9121550282 24.4576406846 2.77769204824
7566 1 36.9470891493 25.7366652359 0.223599908128
8051 1 40.9503260242 23.7507434863 0.883929364227
7491 1 38.3078778644 23.8039559186 0.856057327585
7562 1 38.3498762764 26.3682302112 2.13866122322
8058 1 39.6303773565 24.4073595234 2.80901272625
8122 1 41.0549273963 26.3103376619 2.25413393789
8126 1 39.7039320319 25.7184291253 0.227437165999
8611 2 44.6007178053 23.7384454942 1.20258971563
8618 1 42.4660703402 24.2311830593 2.72824061678
8682 1 43.9269484058 25.9710304154 2.19770346855
8686 2 42.2090020756 25.734828156 0.47437659001
282 1 1.70102115787 27.5048866633 0.797421422673
286 2 0.686551220916 29.588205251 1.21611807871
846 1 3.17919540295 29.2651422552 1.18913808405
283 1 1.18744797506 28.4495151081 3.26262992278
847 1 3.18186951776 30.5202229702 3.68683778793
281 1 1.9533769903 31.2406826221 1.79415734557
843 1 4.58625505477 28.5536207605 3.11070504934
1403 1 7.31085760068 28.5097631507 2.96597641087
1406 1 5.87409525942 29.0920744946 1.07976452437
1401 1 7.27240061251 31.1047582382 1.63995615423
1407 1 5.99058137436 30.4502955905 3.62646873968
841 1 4.65762179086 31.0926229432 1.76753801389
1961 1 10.0024204414 31.0545530611 1.58197403802
1963 1 10.0240451352 28.5058423001 2.86918301458
1966 1 8.61976006234 29.1513914934 0.98037547813
1967 1 8.66998084811 30.4329848925 3.53996489659
2526 1 11.3403171269 29.1239575155 0.921688742083
2527 1 11.3848740993 30.390833151 3.50139779623
2521 1 12.7048027798 31.0500336881 1.57487965215
2523 1 12.6920636126 28.4560718013 2.87087153604
3086 1 14.0394059558 29.1150060225 0.931770012545
3087 1 14.0938770237 30.3390379307 3.50202494655
3081 1 15.4593372328 30.9767885885 1.55306229643
3083 1 15.4678239354 28.3831813222 2.8228510441
3643 1 18.2186128363 28.4151742115 2.77461602499
3646 1 16.8279363264 29.0598803753 0.920466147491
3647 1 16.8289415524 30.288879418 3.45430231169
3641 1 18.2510792777 30.9045995777 1.54425626613
4203 1 21.0522024129 28.5140542333 2.92996377285
4201 1 22.5855469574 28.9447021005 1.03704727985
4206 1 19.7038945981 29.0203121537 0.882229431498
4836 2 21.2060581118 30.5185201186 1.79779980213
4207 1 19.5901635368 30.3002719213 3.49840193676
4768 1 23.0983723212 30.6432625123 3.01727206902
4761 1 24.9092876903 30.0737275704 1.49547078689
5327 2 26.2588446275 28.2708151922 1.29925797115
4763 1 24.4913292977 28.2362932612 2.88729070836
5328 1 25.6567451574 31.0170529544 3.51759426967
5323 1 27.0951282226 28.954033006 3.46627780182
5321 1 27.2843030594 30.2931002383 0.943614841859
5881 1 29.9757338679 30.2192817159 0.890490949249
5883 1 29.9611670696 28.9047733544 3.48517920482
5887 1 28.6306699378 28.2795849977 1.58325634641
5888 1 28.6007113928 30.8362442245 2.8549100883
6441 1 32.7681286974 30.2112127152 0.871038127428
6443 1 32.7623754139 28.9095903363 3.4459271957
6447 1 31.3612169786 28.2939601582 1.5369189317
6448 1 31.3790811209 30.8262893593 2.81277706282
7007 1 34.1427966712 28.279908771 1.50389985365
7008 1 34.1758450999 30.8255913682 2.77986056123
7001 1 35.5662090109 30.1744321304 0.854114304832
7003 1 35.5399108363 28.8978082025 3.40645213385
7567 1 36.9695932162 28.2739027139 1.49095316202
7568 1 36.9551597037 30.7686600549 2.768914298
7561 1 38.4106849482 30.1664714939 0.8584362742
7563 1 38.3749160746 28.9059687382 3.40441539541
8121 1 41.3261594554 30.1031212538 0.861998941325
8123 1 41.2377271832 28.8449410698 3.38627669833
8127 1 39.780164374 28.2840144581 1.49861349163
8128 1 39.8523611424 30.7585918626 2.75561079994
287 1 45.5709165234 30.507417535 3.11767485579
289 1 45.1955563316 27.7353774625 1.62984352856
8681 1 44.0402015568 29.884875475 0.759818792989
8687 1 42.6170144713 28.0821914968 1.47136123491
8688 1 42.8460278488 30.7741451308 2.74750900519
8683 1 43.8899065618 28.7051901616 3.42167713341
353 2 1.85520232739 34.7138805702 2.72463403005
919 1 3.29546020597 33.0774623826 2.19598595956
344 2 3.3092115931 31.7218836637 0.072735652013
918 1 1.55199084061 33.7132542008 0.275177236269
912 1 4.55819687714 33.6905144781 0.215951269618
913 1 4.49617275262 35.0072467046 2.9171754634
1472 1 7.34815290043 33.6466896543 0.396177735898
1473 1 7.34710030478 34.9551047359 2.91490406413
1479 1 5.94627300032 33.0918915465 2.26731362365
2032 1 10.0176909988 33.6293735831 0.30456888813
2033 2 10.0769999503 35.045535007 2.86477022983
2039 1 8.72560839924 33.0124123743 2.29082857078
2599 1 11.3258994874 32.9669573899 2.23260087275
2592 1 12.741246609 33.6012746538 0.301298309444
2593 1 12.6960233352 34.8315990344 2.7921812567
3159 1 14.1083568428 32.9182506827 2.20592167682
3152 1 15.5121214833 33.5347391778 0.293325406322
3153 1 15.5318812342 34.768299722 2.73549080308
3712 1 18.2634139483 33.4945424065 0.391096817668
3719 1 16.8507483011 32.8102041953 2.21628266811
3713 1 18.2754754232 34.7905170345 2.68625903022
4279 2 19.3923319689 32.8436217927 2.32546609435
4839 2 22.5589513771 33.1773336621 2.52261893978
4272 1 21.0008355346 32.8053900065 0.42844187091
4837 1 20.551980542 34.8311967107 1.87373961453
4824 1 23.0638949032 31.856670707 0.611449301116
4838 1 22.9583293131 34.8020229178 1.13832878688
4832 1 24.6848500524 32.7484180039 2.18687003697
5396 1 25.6299248651 31.9541367838 0.158847226249
5397 1 25.8412878746 34.7493719897 1.58125617828
4833 1 24.350407189 35.227059589 3.51903053835
5392 1 27.2115434742 32.7162044932 2.11190153307
5952 1 30.0192442717 32.741190731 2.14928289811
5956 1 28.6163671607 32.1391683543 0.211083147886
5957 1 28.7023208395 34.6755006025 1.52079751211
5953 1 30.0835576513 35.3299955118 3.44541732389
5393 1 27.3187123538 35.3568183779 3.40477376726
6512 1 32.7962188215 32.7408944452 2.14693668954
6513 1 32.8413849267 35.2941659755 3.42659992673
6516 1 31.3905010707 32.1351017374 0.20984243895
6517 1 31.4250674723 34.6590527485 1.49640985584
7076 1 34.2132810641 32.1160778416 0.238253103347
7077 1 34.2370327235 34.6482360497 1.52335467267
7072 1 35.6119128056 32.7289601506 2.14743450994
7073 1 35.6439960199 35.2815071067 3.43111094707
7636 1 37.0017313665 32.0787366627 0.211058564519
7637 1 37.0530060673 34.6268333469 1.53784914152
7632 2 38.2677174637 32.5573332041 2.08556321661
8192 2 41.3842874442 32.451353743 2.11813699434
8197 1 39.7998719987 34.5238291946 1.67832970629
8196 1 39.8731665451 32.0201659171 0.276789041107
8193 2 41.3907131026 35.2212473436 3.45043037743
8753 1 45.4395227022 34.4008665355 1.71383842328
358 1 45.4627028744 31.907805277 0.799358831099
8752 2 44.7262222276 32.670586707 3.06834662029
8757 2 43.3151122704 34.6927840285 0.837091880706
8756 1 42.7768434549 32.0385423067 0.254523024182
8761 1 43.8980794078 35.2856923575 3.39935606349
916 1 3.22019759614 35.5415419965 0.945872750121
356 1 0.978179048811 36.497496759 1.41030381287
351 1 0.855757983689 38.7112338942 1.86696933156
917 1 2.89610250189 36.9830387634 3.00949399014
988 1 2.95460366006 38.1887756568 0.0498161228023
911 1 4.61542606612 37.5152723996 1.60514809216
1471 1 7.30883978402 37.5002837045 1.63740400715
1476 1 5.93933706996 35.5560713589 0.99899900935
1477 1 5.87882200102 36.8751146758 3.54786396568
2031 1 10.0892431861 37.4767558736 1.63816663091
2036 1 8.69891511357 35.5817991624 0.98906259339
2037 1 8.69456180107 36.8563019781 3.55579511659
2596 1 11.4021788368 35.5470750314 0.914224663809
2597 1 11.5095195822 36.820892691 3.57231328782
2591 1 12.783253355 37.4557200878 1.54521372824
3156 1 14.1585362619 35.5046173177 0.915663344502
3157 1 14.0930454406 36.7048703403 3.28914940991
3229 1 14.2234128258 39.2703238691 2.31972253179
3151 1 15.6024042792 37.4125487372 1.54923835115
3711 1 18.553394012 37.0944209655 1.73230205092
3716 2 16.8962386232 35.4625917306 0.888768597727
3717 1 16.9606219487 36.6587369671 3.35311019293
3789 1 16.9918576033 39.1766077586 2.4376298357
4276 1 21.3502992439 37.033062877 0.981876891629
4277 1 20.1532736158 36.5021224554 3.53139954926
4271 2 21.9592422693 39.1583414065 1.98412494355
4349 1 19.7022961618 39.1898568306 2.24458035586
4902 1 22.9121082056 37.0777728423 2.76191684318
4831 1 24.4283282492 36.6255355676 0.854068190043
5398 1 25.8251287317 37.1963336453 2.76827785303
5466 1 25.8792379633 38.4996548609 0.204612544606
4907 1 24.4367047378 39.1174764904 2.07724196854
5391 1 27.3181636397 36.6169533795 0.904730740046
5462 1 27.2941176501 39.1108169161 2.17630054204
5951 1 30.1012571566 36.5971931665 0.882732693164
5958 1 28.7119087003 37.2392505982 2.7905049345
6022 1 30.1187118583 39.1501866095 2.19930147718
6026 1 28.7446333914 38.527081276 0.281628995105
6511 1 32.8645076516 36.5818582425 0.896877241948
6518 1 31.4943856331 37.2235083278 2.7965639065
6582 1 32.8837248812 39.1394438592 2.19939903865
6586 1 31.5070578871 38.5268575344 0.258146769209
7078 1 34.273413637 37.2066269347 2.80975279812
7146 1 34.2761178392 38.4979891041 0.270417090992
7071 1 35.6661684763 36.5500990995 0.906695472635
7142 1 35.6786987776 39.1213446415 2.18595293771
7638 1 37.0571384536 37.2264222458 2.80884320904
7706 1 37.1057485363 38.4287473681 0.302463374519
7633 2 38.2733456006 35.3956680213 3.50052482516
7631 1 38.5376511149 36.4949040817 0.986501513783
7702 1 38.5442973887 39.069283044 2.18673812904
8191 1 41.3764574397 36.3776405482 1.06308934645
8198 1 39.9522590428 37.1910310623 2.85605576128
8266 1 39.9782495424 38.3658125413 0.298440679907
8751 1 44.2197047899 36.9007176176 1.24317715354
8758 1 42.5262429855 37.3743554064 3.09352736047
8822 1 44.8004577916 37.808539044 3.34271606692
8826 1 42.6262949744 38.2378859906 0.205020818342
989 1 3.09855698233 39.5211184547 2.20734061122
423 1 1.43764367015 41.4608695875 2.64987704191
986 1 3.122245134 42.0482122822 0.920417350588
422 1 1.69201190992 40.256930009 0.198039990603
987 1 3.04417697567 43.2000569989 3.42030755829
982 1 4.50874378701 40.0962396098 0.321364536773
983 1 4.505534936 41.3912303076 2.72981555954
1542 1 7.33912522555 40.0734710382 0.343332982438
1543 1 7.36347854646 41.3533890905 2.8193187627
1546 1 5.9517109714 41.9768841021 0.884484175774
1549 1 5.89447609811 39.4383604467 2.27515804446
1547 1 5.92603221669 43.1979281701 3.52325025402
2102 2 10.0932542452 39.9298791134 0.404083962218
2103 1 10.0531034629 41.3039652528 2.88597587184
2106 1 8.75684080903 41.971550677 0.930488789541
2109 1 8.69341753579 39.3949270217 2.26657391783