ITEM: TIMESTEP
28000
ITEM: NUMBER OF ATOMS
8960
ITEM: BOX BOUNDS pp pp pp
0.0 45.68
0.0 51.0717926061
0.0 44.6878185303
ITEM: ATOMS id type x y z
569 1 2.8622214047 0.918061127892 2.11880065236
2 1 1.5592754113 1.58336459364 0.169754807051
566 1 2.86399944671 3.54990590596 0.895796193637
3 1 1.33861424034 3.46663405691 2.85932862799
8401 1 0.141520550316 3.35347928125 0.833851390807
8465 2 0.493997448911 0.00465443556587 1.99150049482
562 1 4.34715080736 1.67948720259 0.282145505858
563 1 4.24366616531 2.88382205971 2.81488321275
1122 1 7.11515487144 1.76651200466 0.27350599492
1123 1 7.05538814846 3.03744667631 2.873896642
1126 1 5.67848469894 3.6369438355 0.936773233484
1129 1 5.74093089296 1.03038937847 2.18884864801
1682 1 9.93584082826 1.8366734654 0.284628568496
1683 1 9.8626208529 3.13009386268 2.93459399558
1686 1 8.48701543086 3.67037125 0.952929674158
1689 1 8.63925072056 1.27688001473 2.28313251335
2249 1 11.2355033029 1.13839276123 2.27534777069
2246 1 11.1500733521 3.85480995627 0.985020149014
2242 2 12.3679344995 2.09678351734 0.526287133557
2243 1 12.6224491035 3.07826133431 2.86157257291
2809 1 14.1243526239 1.19034960658 2.11683753944
2806 1 14.0429976643 3.6498578571 0.9309523348
2803 1 15.3382915201 3.15879242163 2.83535147276
3369 1 16.8217680577 1.50164349855 2.2935451838
3851 1 18.1156992927 0.142010511397 1.01503675984
3362 1 18.6197115451 2.5861506572 0.672261132792
3366 2 16.7026974632 3.87253550028 0.995976651006
3929 1 19.1816462759 1.50004125344 2.78491526966
3363 2 19.9963354889 3.77693255291 2.06553792054
4489 2 21.5551007813 0.394787628764 2.4023552023
4488 1 22.0230262229 2.87063920761 2.37248986972
3923 2 23.7874871705 2.46157372871 1.05010984404
4482 1 24.3327134751 0.677651531208 2.38592202147
5047 1 25.9288393703 2.67167984218 1.52067598668
5046 1 25.9281297896 0.119659370145 0.420472618848
4486 1 23.2573785865 0.194926803991 0.339852959293
4483 1 24.4282654197 3.17692005556 3.37487628509
5042 1 27.2397777092 0.806496095439 2.29487258922
5043 1 27.1412838831 3.34561975924 3.48884057184
5602 1 30.0615714978 0.86102866677 2.31908912102
5603 2 29.9896144163 3.32498770255 3.66633246491
5607 1 28.6298625736 2.73050071767 1.63953043435
5606 1 28.7607360261 0.174267619873 0.449892452468
6162 1 32.7978174362 0.854842939827 2.27332947918
6163 1 32.787868097 3.39088991168 3.54242145076
6167 1 31.3800226463 2.76885330211 1.64756214023
6166 1 31.4115072705 0.179479883415 0.357053371007
6727 1 34.1891292586 2.75076750812 1.64219318323
6726 1 34.1932985158 0.182569718388 0.363480818828
6722 1 35.6180536559 0.843426653758 2.27334262836
6723 1 35.6453282076 3.39054491977 3.53389263906
7287 1 37.0089964159 2.73151208153 1.64118364294
7286 1 37.0172590434 0.213137848587 0.375887124826
7282 1 38.4190039489 0.855328042967 2.29647453707
7283 1 38.4719232417 3.39269420804 3.52820779407
7842 1 41.2761603276 0.977427086738 2.27310516781
7843 1 41.2095813355 3.332911503 3.69090469446
7847 2 39.6605138494 2.77169843551 1.51631071448
7846 1 39.7827077591 0.17610131175 0.434826700524
7841 1 41.7111127222 3.58493662313 1.48739157493
8407 2 43.2729088133 2.11043712803 0.855326847054
8402 1 44.0774343379 0.606985003095 2.66213426855
8403 1 44.052659223 3.0519096385 3.1201778809
8 1 44.9764079681 0.864092479523 0.200823299799
6 1 1.66961649294 5.55509698786 1.5388711053
639 1 2.7914970373 7.5737171367 2.1971058344
567 1 3.10061855037 4.87167400578 3.47955986992
561 1 4.27410212114 5.57307224548 1.52741182011
1121 1 7.05521676324 5.57950563821 1.58380559626
1199 1 5.63927726472 7.50399726372 2.21006911208
1127 1 5.63866540977 4.90949475384 3.49703364905
1681 1 9.81072683082 5.6547716832 1.614241703
1759 1 8.44052941345 7.52521954411 2.23552324988
1687 1 8.44191285658 4.97135558303 3.52582254166
2319 1 11.2575543608 7.5269601613 2.2363493053
2247 1 11.268265226 4.99990378684 3.50058547391
2241 1 12.655752554 5.62961273919 1.60326683567
2879 1 14.0240489816 7.5156482289 2.21078530213
2807 1 14.0051096522 4.9802880347 3.52532029103
2801 1 15.3432291692 5.60534200769 1.62873559637
3361 1 18.557585757 5.61480569351 1.2899514118
3439 1 16.7714447226 7.43344843841 2.18817716163
3367 1 16.9501140462 4.97688289048 3.39079919028
3921 1 21.5824356087 5.52962039134 1.38867781469
4559 2 20.2898867587 7.15578808813 2.84980751934
3999 1 20.2152267783 7.35909193404 0.471966390708
4481 1 24.1011927695 4.69530686266 0.852536016989
4552 1 23.7735287002 7.15104221526 2.11871723565
5048 1 25.7003188352 5.26040678217 2.74891921713
5116 1 25.7842863283 6.42147681589 0.389655824308
3995 2 23.1122042387 5.04708255946 3.00622451007
5119 2 25.5271828755 7.69095478822 3.52134288294
5041 1 27.2198569192 4.60532883197 0.991416298089
5112 1 27.2918905211 7.14122358968 2.26438298536
5601 2 29.9800043573 4.6857334736 0.8597345934
5608 1 28.5652744834 5.23178036237 2.91277256196
5672 1 29.9692380917 7.14841991739 2.25569429567
5676 1 28.577107628 6.54472393833 0.33525378463
6161 1 32.7719801939 4.64709922016 0.994327291224
6168 1 31.3524082315 5.25203087847 2.88648211104
6232 1 32.7796577924 7.14871303614 2.25768632696
6236 1 31.3887456982 6.5600009505 0.339584410015
6796 1 34.1943845262 6.54150688302 0.347497622559
6728 1 34.2068691825 5.2697019179 2.89006881683
6721 1 35.5952982584 4.63940905108 1.00353251003
6792 1 35.6310425684 7.16409384075 2.25743310846
7288 1 37.0704300992 5.27552398919 2.87242564885
7356 1 36.9802810797 6.54364146813 0.326554220577
7281 1 38.3484471443 4.62982653754 0.907572587297
7352 1 38.4911770924 7.16402835756 2.23609782086
7848 1 39.9704326099 5.19672011961 2.6818503518
7912 1 41.2600421432 7.21446345453 2.11689879326
7916 1 39.687095938 6.53888988636 0.253565130157
8476 1 41.7731031849 5.64602334295 0.403193938067
8404 1 45.6511211537 7.59984035303 2.29468401263
1 1 45.2086356096 5.23569079823 2.55542478351
8408 1 42.7723968681 5.21628949064 3.06369291145
8472 1 43.7961073967 4.42929482068 0.886127911005
76 2 43.7551200952 6.62432799929 1.18882393801
72 1 1.36967433564 8.22499225929 0.223861848769
73 1 1.39319263687 9.51334351222 2.82912960857
636 1 2.94261685626 10.2404993255 1.0386455298
637 1 2.86325985306 11.3677541621 3.563694169
632 1 4.23046205463 8.17413172984 0.322446794051
633 1 4.2606811999 9.45410673063 2.86169669219
1192 1 7.06783601101 8.12786758529 0.298577512084
1193 1 7.06818261561 9.42553410022 2.86314516475
1196 1 5.69874479595 10.0256097122 0.935050908822
1197 1 5.71042532897 11.3461592043 3.54324404267
1752 1 9.84778725128 8.14528518613 0.313528083202
1753 1 9.86840213823 9.43210239339 2.8635745175
1756 1 8.45858692577 10.068646163 0.946180298863
1757 1 8.48246068361 11.3441946658 3.49832383756
2317 1 11.2956730716 11.338861639 3.495695769
2316 1 11.2487346425 10.0724798691 0.948475304678
2312 1 12.6156622658 8.15221022217 0.303286846434
2313 1 12.6766523917 9.43899385567 2.85219230355
2876 1 14.0323877339 10.0648958459 0.903068097225
2877 1 14.1493592218 11.3147404023 3.47012520059
3432 2 18.0911953159 8.03076045735 0.327176441811
2872 1 15.4236704323 8.17106499708 0.27603339712
2873 1 15.4280527041 9.36598195591 2.73754252867
3433 1 18.5921476242 8.99973378896 2.44951727834
3436 1 16.9108007398 10.0118797462 0.898295629039
3437 1 17.0087029233 11.1119374534 3.07011235154
4557 1 21.6481102552 9.04279875209 1.97236276338
3996 1 19.8301158371 10.1508290513 0.628329157686
3997 1 19.7559835083 10.9741542418 2.98636466201
5118 2 23.574364226 10.7453736872 1.66633764848
4554 1 23.9713708858 9.62791395416 3.51944847654
5117 1 25.7041018896 9.24039287358 1.68328842962
4551 1 25.7082669512 11.5737900237 2.8028694103
5111 1 27.2586010967 10.9689004684 0.978634452377
5671 1 30.0196962778 10.9944984244 0.962888673648
5673 1 29.9898167021 9.69112235529 3.53038122309
5677 1 28.5583595774 9.09686484435 1.66991711926
5678 1 28.6160180177 11.5489669817 2.89821771567
6231 1 32.8081578073 10.9700644904 0.972942428047
6233 1 32.7968626585 9.67708616012 3.52524105857
6237 1 31.388084369 9.06181538522 1.61273875264
6238 1 31.4375555459 11.5980410683 2.88589759549
6798 1 34.1828141507 11.5599556215 2.90679303686
6797 1 34.2075811616 9.05926861696 1.61871225954
6791 1 35.6039458997 10.9682876969 0.983531590179
6793 1 35.6428232852 9.68474609088 3.5367509268
7357 1 37.0291491276 9.06802688791 1.62253794957
7358 1 37.0698939872 11.5638959389 2.88871016122
7351 1 38.3729741135 10.9592239659 0.87874459733
7353 1 38.5210534308 9.71996023423 3.53495778967
7911 1 41.1248262039 11.1101694876 0.653482003288
7917 1 39.7917046029 9.12246625948 1.54237699548
7913 1 41.3621624092 9.84668617077 3.5469556007
7918 1 39.7312796895 11.6152981898 2.78893692802
8477 2 42.1176559591 9.28745544673 1.35511138903
8473 2 45.1993776737 9.52887368141 1.15436280326
7914 2 43.3932285946 11.0034641326 3.59953700281
71 2 1.12689069586 11.9464153894 2.2481720602
706 1 2.84702313229 13.7637990903 2.28565366034
141 1 0.453152799307 14.1845224051 1.61054451285
769 1 2.3531450642 15.3794341627 0.583664998343
631 1 4.50625101016 12.0019167675 1.63725670779
1191 1 7.06942432649 11.9951670122 1.59090044808
1262 1 7.0839332778 14.5547987867 0.316681135725
1269 1 5.72613489854 13.9688218098 2.2902346718
702 1 4.47520255505 14.5674514532 0.320713907941
1751 1 9.87012717537 11.9889298679 1.59054928909
1822 1 9.87998420328 14.5486339135 0.325056494037
1829 1 8.48727575605 13.9119741322 2.23312865985
2389 1 11.3034715369 13.8891580234 2.23434066469
2311 1 12.6815227804 11.9789081286 1.58394317644
2382 1 12.6992667952 14.5228936237 0.330378049954
2949 1 14.1468180878 13.8505581258 2.24701496373
3431 1 18.3714845264 11.9530942112 1.30591567203
2871 1 15.4589324298 11.9554397101 1.52679671693
2942 1 15.4844726454 14.4933975766 0.321516379478
3502 1 18.4666202526 14.4837823811 0.310300458577
3509 1 17.0357890003 13.7270291853 2.20930098866
2943 1 15.6133572185 15.6930220568 2.84343810597
3503 2 18.2718420512 15.7079217879 2.58107033186
3991 1 21.7800654252 11.8839438783 2.10918671682
4069 1 19.8650732367 13.5162500736 2.29465494986
4622 1 22.1333508191 14.3056576331 2.89885866488
4062 1 22.1755589062 14.142821909 0.449129702506
4068 2 20.6481013199 12.4528354485 0.181292002045
5186 2 26.0119590239 12.8752776096 0.430824671354
4626 1 24.1135558553 13.1403834899 1.97817973655
4623 1 24.3727691814 15.4799634002 3.04537860501
5187 1 24.5282113023 14.6693098111 0.110827935836
5182 1 27.2269927401 13.4392847945 2.27229058263
5742 1 30.0692452275 13.4606649786 2.24372226771
5747 2 28.7432576 15.240418437 1.57105890132
5746 1 28.6477463571 12.9171969596 0.344800516577
6302 1 32.8784052892 13.5282107279 2.24019649125
6306 1 31.475642347 12.9068738786 0.33254055658
6307 1 31.4765823038 15.4183931509 1.60545750016
6866 1 34.2089853118 12.8772470465 0.351515029933
6867 1 34.3347591056 15.4090474011 1.63271019924
6862 2 35.6174505024 13.2896654669 2.33653619285
7426 1 37.0005955896 12.860726624 0.274168897288
7427 1 36.8566635028 15.4202454722 1.61600065365
7422 1 38.3062157075 13.5450759613 2.19429548353
7982 2 40.9328312409 13.3868064111 2.03888334304
7986 1 39.6139782733 12.9285394745 0.168050681842
7987 1 39.6686734208 15.4300814129 1.51335158873
77 2 44.0485435902 13.5209294282 1.77311738628
8547 1 42.4101965115 15.362290126 1.73779670195
148 1 42.4845908162 13.1044434641 0.273882353741
143 1 1.45230416281 15.955306155 2.92090553343
8543 1 0.259942756505 16.8085586463 0.440263318314
703 1 2.40925407849 17.5381436657 1.32415047375
779 1 0.166262493959 18.1201481665 2.85508647457
218 2 0.77509160699 19.2937539748 0.994467050631
710 1 3.04604632073 17.855034862 3.54748033564
1263 1 7.11634350767 15.8545701558 2.88675451324
709 1 4.14549648142 15.8536440712 2.69344044655
701 1 4.44719649416 18.5015262761 1.59078318698
1266 1 5.76460063805 16.512162947 0.982939138072
1261 1 7.14325303895 18.4336426969 1.628647161
1267 1 5.71564877455 17.7578334209 3.5086607471
1823 1 9.91833741456 15.8145746018 2.87052049792
1821 1 9.9418012772 18.3738067033 1.61213193568
1826 1 8.50224293127 16.4775728195 0.969020597502
1827 1 8.53778323466 17.7495375918 3.52211158906
2386 1 11.3204136352 16.4470861096 0.96696688418
2387 1 11.3703188357 17.6990713413 3.49874326164
2383 1 12.7525210823 15.7725638374 2.86012137062
2381 1 12.7775535749 18.3359471154 1.5985562453
2946 1 14.1454650229 16.4184298106 0.959779209913
2947 1 14.2214545746 17.6374617033 3.48943058707
2941 1 15.5936409921 18.302418427 1.57011331291
3501 1 18.415774633 18.1586629194 1.44574564821
3506 1 16.8791226476 16.3548670304 0.857472510057
3507 1 17.0150040417 17.5830960581 3.47540549543
4061 1 21.1173881019 18.1928392662 1.5610331892
4066 1 20.4190787106 15.8323395575 1.76692488753
4627 1 21.8895405357 16.5671237966 3.50096392098
4067 1 19.5612241998 17.5665713723 3.39407196092
4063 1 22.8733402046 16.435172003 1.15140346719
4696 2 23.2653874902 18.9430284913 0.655144212373
4628 1 23.2237541297 18.3222874624 3.04591595454
4621 2 25.4948500296 16.3901040263 1.26796632487
5188 1 25.7942987661 17.904423836 3.07906001841
5256 1 25.7995619114 18.8841948452 0.355496921837
5183 1 27.1991539015 15.9604930906 3.32482957307
5181 1 27.485139751 17.2959557426 1.00646764021
5741 1 30.0484639811 17.3019997083 0.963332675284
5743 1 30.0406611786 16.0620385302 3.46372222058
5748 2 28.6792046192 18.080232669 2.96125542652
5816 1 28.6728112428 19.2227677797 0.315918501795
6301 1 32.9220622818 17.3032522637 0.957790348207
6303 1 32.8842442544 16.0563955815 3.48780716176
6308 1 31.4560336227 17.9468720774 2.85186574336
6376 1 31.4688837211 19.21247879 0.323548916397
6936 1 34.2301269041 19.2796170078 0.300533479839
6868 1 34.2342250317 17.9802629561 2.9039040183
6861 2 35.5941442471 17.4900299117 1.02099858691
7428 1 36.9816152793 17.9642282724 2.8695227761
7496 1 36.9908250424 19.281633167 0.294629291908
7421 1 38.2599730029 17.3125409664 0.931114411116
7423 1 38.3269720397 16.0617981606 3.48485840853
7981 1 41.1331114563 17.3150157566 1.02830653353
7988 1 39.7417919742 18.0555901946 2.88680276162
8056 1 39.7186467928 19.1976850273 0.344389986341
7983 2 40.8576651535 16.2249318995 3.431398689
147 1 44.7046967793 15.9757602424 2.42969274451
8610 1 43.7155781516 17.3622780143 0.914313604875
8616 1 42.5460546681 19.2233804778 0.280809190836
8544 1 42.8884115977 17.7649210138 3.07598481299
220 1 1.37096214117 22.1358750477 3.34740326325
216 1 2.94317588249 22.9588701892 1.08486775433
228 1 2.85782120602 20.3276549841 2.17635890094
776 1 1.22839531408 21.4661818859 0.620441366571
772 1 4.2383476497 20.9654373648 0.356737301729
773 1 4.31453670815 22.2761824065 2.93274698278
1332 1 7.15871809836 20.9665072604 0.370596050038
1333 1 7.19401082505 22.2395221808 2.92738890707
1336 1 5.73749096369 22.8577426837 1.03849750833
1339 1 5.75274596835 20.4024390959 2.25402609926
1892 1 9.97936737714 20.9394047711 0.365318316197
1893 1 10.047231742 22.1786307379 2.89192737128
1896 1 8.60037109803 22.8475973604 1.02297375336
1899 1 8.5760093301 20.3140007028 2.27027539272
2459 1 11.3873682252 20.2392875697 2.23509447026
2456 1 11.4349011001 22.8201824044 0.990808030001
2452 1 12.7927252167 20.9130469696 0.334550966925
2453 2 12.8328352734 22.0185002696 2.93023917225
3016 1 14.1912791918 22.8100019419 0.967742045248
3019 1 14.2321295841 20.2143651241 2.20004919877
3012 1 15.5980636609 20.926500088 0.278895633219
3013 1 15.6219530433 22.1333121997 2.81468006945
3573 1 18.3580913353 22.1360318484 2.79685744544
3576 1 17.0590273557 22.7953836694 0.893610004692
3579 1 17.02535612 20.1933523355 2.1342558794
3572 1 18.3881574443 20.8479984484 0.212499859771
4697 1 22.4238599478 20.5872167113 2.23336643898
4139 1 19.7552681721 20.1325757091 2.12395117317
4136 2 20.6327644651 22.2044312191 2.64040401744
4691 1 22.5640759907 22.7423499735 1.2527330463
4132 1 21.2923688672 20.4696267708 0.187291747637
4766 1 20.0255843157 22.7372284055 0.545818746561
4692 1 24.7519724468 19.9018358573 2.28802180059
5257 2 26.0876530917 21.8258346735 1.46501292437
4693 1 24.4210216949 22.0879475225 2.99050600393
5252 1 27.2227415786 19.8011137534 2.22948335508
5253 1 27.2921576139 22.4303661697 3.50453226384
5812 1 30.0683867653 19.8811536907 2.22249939175
5813 1 29.9933556333 22.4811376334 3.48833459824
5817 1 28.6708756973 21.7431435051 1.56741165661
6372 1 32.8412289719 19.8896160638 2.2243622623
6373 1 32.8226778481 22.4694908066 3.47024279573
6377 1 31.4225100239 21.8149556623 1.57749032385
6937 1 34.2371497598 21.8183621427 1.56645463759
6932 1 35.6198503199 19.8979996765 2.2260720667
6933 1 35.62837838 22.4746427928 3.47765440806
7497 1 37.021314954 21.8282313125 1.57897652819
8052 1 41.2284159927 19.8945738224 2.14575968778
7492 1 38.3625881488 19.9045805846 2.23702652739
7493 1 38.4097819529 22.4552216071 3.49974931731
8053 2 41.0992067621 22.4585817854 3.39011656806
8057 1 39.8068477297 21.7980086433 1.59255373779
8548 1 44.1880309685 19.7187518114 2.03567211319
8617 1 42.7008452201 21.6141233037 1.45146937599
8604 1 44.8524714913 22.0430816884 2.65430806361
8611 2 43.8946331025 23.5054885727 1.26713127476
280 1 0.737090539876 23.8876572878 1.48732351081
211 1 0.969686955476 26.1707386172 2.14153355875
849 1 3.10732122506 26.9072341313 2.44725636095
777 1 2.75367583205 24.2090757068 3.29195908798
219 1 2.92098619588 25.3526514703 0.0388464835367
282 2 1.98204569298 27.3706620256 0.204107559137
8613 1 0.103829536782 24.4673412722 3.69116011763
771 1 4.46092017441 24.8473789843 1.72910008995
1331 1 7.18576902282 24.7538036421 1.67402261976
1409 1 5.83521427583 26.6871226363 2.3670561832
842 1 4.47665971731 27.3340502613 0.410931641432
1402 1 7.1920108215 27.2800744473 0.368608212618
1337 1 5.80618510165 24.132443025 3.5881489754
1891 1 10.0467769081 24.7210730083 1.62761205555
1969 1 8.62162613736 26.627295861 2.29048629087
1897 1 8.66036434721 24.1015848853 3.51524425421
1962 1 10.0153051395 27.2463122055 0.351966888482
2529 1 11.4263445521 26.6241495506 2.26517811948
2457 1 11.4722671761 24.0457588769 3.51255297925
2451 2 12.8180097066 24.8127222135 1.54833322067
3089 1 14.2433812359 26.5866112913 2.24920514531
3017 1 14.2185579236 24.029487637 3.49467938245
2522 1 12.8257011378 27.2298389537 0.333136571822
3011 1 15.6351952394 24.6678509312 1.61048242304
3571 2 18.4384239633 24.6298722931 1.7017378499
3649 1 17.0589849367 26.5735019424 2.25539014681
3577 1 17.0194296113 24.0156717659 3.53953915373
3082 1 15.6259299431 27.2022871762 0.313653723402
3642 1 18.4018252998 27.2268025401 0.363029484218
4131 1 21.2050362354 24.4163540762 2.22575847659
4209 1 19.8647449718 26.7772849056 2.13888961651
4202 1 22.4660387559 26.5135029141 2.06973725692
4194 1 20.3632854071 25.3496370629 0.264768829762
5329 2 24.6011602552 25.7417829567 1.72912252671
5258 1 25.9514105219 24.1085920393 2.56128354847
4698 1 23.6040557757 24.3279311615 3.10405995004
5251 1 27.4602375247 23.6959794336 0.817240753881
5811 1 30.0037214436 23.7208198273 0.885195441378
5322 1 27.0969096103 26.3120956133 2.1040052408
5818 1 28.6110655911 24.4175378917 2.81091202335
5882 1 29.9988287017 26.3165744739 2.15577955058
5886 1 28.5908564471 25.681270521 0.249922747444
6371 1 32.8295668741 23.7338395359 0.915274399813
6378 1 31.400601924 24.3872243871 2.81314051549
6442 1 32.8323585835 26.2887340733 2.16923901635
6446 1 31.4266381334 25.6479848546 0.263701650236
6938 1 34.2370508031 24.3820493596 2.82412107842
7006 1 34.253051935 25.6443280341 0.264753113182
6931 1 35.6560849293 23.7444681506 0.927961470619
7002 1 35.6717849647 26.2654187241 2.17620329577
7498 1 37.0634367991 24.375903221 2.83986755822
7566 1 37.0584924132 25.6334118085 0.244834833135
8051 1 41.3163885984 23.6880062784 0.995363348697
7491 1 38.4431035662 23.7282462723 0.935932379679
7562 2 38.450698192 26.3250251095 2.06958368619
8058 1 39.8112614027 24.3500497231 2.84397133216
8122 1 41.2691071892 26.1483294353 2.27815119122
8126 1 39.8432182616 25.614921063 0.299489225337
8618 1 42.8402668462 23.8575089985 3.22258487691
8682 1 44.0772286289 25.7503694144 2.11601748954
8686 2 42.300610599 25.9046656119 0.27497970488
286 2 1.16410901609 30.2349240209 1.44717681271
846 1 3.10089728667 29.2464034574 1.10139636466
283 1 1.03661697283 28.7002366058 3.46709936458
847 1 2.89032578409 30.5890268926 3.37076592729
843 2 4.62541086263 28.7262155847 2.90745350656
1406 1 5.90001930603 29.2441356039 0.971101015435
1401 1 7.40094825401 31.111545451 1.67829915064
1407 1 5.95749761505 30.525809392 3.59421911427
841 1 4.59798890485 31.1243507387 1.68513030458
1403 1 7.27525183414 28.5723566821 2.93894703079
1961 2 10.0664277907 30.8906820406 1.579761225
1963 1 10.0488249896 28.5227570212 2.90454308258
1966 1 8.61944987376 29.1380276631 0.985212986683
1967 1 8.71262649921 30.44940821 3.57625235683
2527 1 11.4297075589 30.4291501218 3.5473540362
2526 1 11.4602441866 29.1244141269 0.97973493311
2521 1 12.7774103149 31.097449171 1.6457172384
2523 1 12.829450954 28.5066865302 2.90042807058
3086 1 14.2012384689 29.1433568176 0.972482487449
3087 1 14.197109403 30.4114790679 3.54003053588
3081 1 15.5662510197 31.0514433486 1.61999348804
3083 1 15.5968157147 28.4597613937 2.89269125399
3643 1 18.4232061344 28.5549324336 2.86930886983
3646 1 16.9380516741 29.0815964265 0.983467944137
3647 1 16.9386593157 30.3577051195 3.52076809023
3641 1 18.1942778344 31.0231719512 1.58398373365
4208 1 21.5605212866 27.7621145635 0.314915565073
4203 1 21.2720453511 28.4969205729 2.94342189544
4206 1 19.6624879434 29.1922477648 0.859131183177
4836 2 21.6539211648 30.1971063454 1.15606871287
4207 1 19.9741390777 30.4514409329 3.23625313002
4768 1 22.9777135152 30.5974152389 3.08257188577
4761 1 23.5915653209 29.0911752233 1.19361691232
5327 2 26.0076615241 28.522538548 1.36181737721
4763 2 23.4695577476 28.2315197036 3.42033964184
5328 1 25.2647323019 30.6690437663 1.68341499342
5323 1 27.1845590304 29.0768318145 3.38973928328
5321 1 27.4100466826 30.2382273082 0.802237953732
5881 1 30.087997299 30.1491959458 0.860835679071
5883 1 30.0410566352 28.894855761 3.41349867657
5887 1 28.6168739221 28.2439126556 1.52975352469
5888 1 28.7532226871 30.8480003249 2.76811767892
6441 1 32.8990730245 30.1077025973 0.869353567838
6443 1 32.8666986302 28.843749645 3.43599897947
6447 1 31.4520414894 28.2179928979 1.52221856353
6448 1 31.521650514 30.7551698861 2.78976777608
7007 1 34.2692149264 28.1796392074 1.52637870914
7008 1 34.2867070528 30.7507524457 2.79619462896
7001 1 35.672390255 30.0935479289 0.883131342575
7003 1 35.6698980444 28.8038082147 3.44470097051
7567 1 37.045701729 28.1820946403 1.52381258573
7568 1 37.060120506 30.7213827461 2.81438548313
7561 1 38.4255784459 30.0772271922 0.881673003152
7563 1 38.4325499884 28.7824966557 3.46667928482
8121 1 41.2861207273 30.1202609599 0.887266703524
8123 1 41.2146035178 28.7636964929 3.46494817985
8127 1 39.8322724783 28.2174207069 1.57759847752
8128 1 39.7954815737 30.6760565617 2.80360486907
289 2 44.987085894 27.7976636169 1.84741996258
8681 1 44.0967028841 30.0419755905 1.10150030187
8687 1 42.531918204 28.1081141155 1.567751902
8688 1 42.5436481589 30.7224590201 2.81890340432
8683 1 43.8172527567 28.7502322171 3.48698984923
281 1 1.09271687281 32.4035012297 2.25903357169
353 1 1.77892594156 34.6702744272 2.81005572663
919 1 3.33194017586 33.0207952775 2.3252914294
918 1 1.51444233643 33.869334035 0.251577013216
916 2 3.37442709408 35.345309616 1.15701303304
358 1 0.00257253564712 31.8264481961 0.168423729304
912 1 4.51507601547 33.5883195067 0.347360136587
913 1 4.74231609858 34.9405575212 2.90766062422
1472 1 7.39554479495 33.6534462096 0.413311044023
1473 1 7.41101060762 34.9109086869 2.92424228004
1479 1 6.03583402091 32.9786271394 2.3030491808
2032 2 10.0816398484 33.7175687839 0.191529184379
2033 2 10.1048872675 35.1377580867 2.99450548645
2039 1 8.84491891027 33.0158630757 2.30105729085
2599 1 11.3437560123 33.0101118441 2.28902287818
2592 1 12.7782662016 33.6375882479 0.404750707932
2593 1 12.8001447112 34.9287865003 2.88574463993
3159 1 14.1906650836 32.9980856241 2.29856853566
3152 1 15.560910702 33.6003487989 0.354617421616
3153 1 15.6527985765 34.8919188907 2.88361859518
3712 1 18.4991103506 33.7383053661 0.394838904315
3719 1 16.9639309287 32.9527789374 2.27778314207
3713 1 18.3645768778 34.7582113105 2.85820469539
4279 2 19.6019135302 32.7300547824 2.39334399716
4839 1 21.9641882996 32.5542639242 2.2665814961
4272 1 20.9689010048 32.9812455599 0.248644754801
4837 1 20.5893116107 34.685508246 1.9389577715
4273 1 22.3715567727 34.6349166802 3.57301345138
4824 1 23.2383460601 31.9064529078 0.223099089417
4838 1 22.9499017214 34.6788668571 1.20745651008
4832 1 24.3660935434 32.8999355326 2.16940169757
5396 1 25.8294254893 32.1919054612 0.0384687824924
5397 1 25.9479497015 34.6029860814 1.50731333858
4833 1 24.5970254752 35.2383474195 3.41713917117
5392 1 26.9758920335 32.3873945061 2.12870551923
5952 2 30.2424457828 32.5978462087 2.06065740467
5956 1 28.6855646812 32.1314386518 0.243230572181
5957 1 28.7130929018 34.535887037 1.61176330863
6512 1 32.9200281958 32.6842853617 2.13680800141
6516 1 31.5356275928 32.042782202 0.196712877634
6517 1 31.5410923993 34.608509605 1.50919291842
6513 1 32.9497408527 35.2618896066 3.40919152783
7076 1 34.305086184 32.035754573 0.236864973187
7077 1 34.3264562998 34.6094048639 1.51445933113
7072 1 35.6952375264 32.6729919131 2.16666116321
7636 1 37.0582417257 32.0124460098 0.248573023907
7637 1 37.0890980663 34.6084888011 1.54012134961
7073 1 35.7099327696 35.2577725413 3.44625572065
7632 1 38.4152964562 32.6301110698 2.17824521442
8192 2 41.0493917408 32.5226923864 2.10476620172
8197 1 39.6976256709 34.5686109583 1.57164060821
8196 1 39.8208731004 31.9884107214 0.246477894391
8193 2 40.9363161364 35.3140177879 3.48797733144
7633 1 38.4262866377 35.2767811523 3.50196786539
8753 1 45.2173313868 34.2047321579 1.55463902482
8752 2 44.2402847606 32.2239833614 2.23269082708
8757 2 43.1673208092 34.6084378117 0.254327961181
8756 1 42.7689758863 32.142785 0.334373423678
351 1 0.567568680392 38.1401247889 2.17923325905
917 1 3.03393587523 36.7657370298 3.44497997262
414 2 0.582445654139 36.2120862365 0.969004201242
989 1 2.9938706317 39.1107570976 2.3901982644
356 1 0.262269255201 36.1329534435 3.62715354098
911 1 4.56622734102 37.3838866469 1.70305937332
1471 1 7.33254780158 37.4696159238 1.66088925849
1476 1 5.98182417954 35.5216950147 0.977496514362
1477 1 6.0362799816 36.8546004364 3.57439370772
2031 1 10.1011042366 37.5578803016 1.63879970746
2036 1 8.73984467775 35.5874935634 1.02029208964
2037 1 8.72117212043 36.9145039602 3.58552543082
2596 1 11.444487588 35.5995455164 1.00646730453
2597 1 11.5419392904 36.9436172912 3.51806419512
2591 1 12.8539859517 37.5211235094 1.60905036269
3156 1 14.219502318 35.5650298098 1.00396058065
3157 1 14.389821763 36.9327625302 3.43970924177
3716 1 16.9497468462 35.4245580122 0.901324046858
3151 1 15.7175056459 37.4226716613 1.53014614993
3717 1 17.3190441491 36.8658368892 3.4512071452
3789 2 17.8130048658 38.6808929198 1.69779317518
3711 1 18.9809187683 36.484359087 1.34376370229
3225 1 15.9991701452 39.0195223129 3.34735664146
4276 1 21.6257412508 36.7896936696 1.40804285321
4277 1 20.5257879613 36.4022093423 3.65532825196
4349 1 19.6101066109 38.4238467334 2.94629643387
4271 1 21.7887105188 38.9438328284 2.70587714096
4348 1 19.9861592983 38.3281395379 0.285484418349
4906 1 22.9863718019 38.6377243624 0.518034619712
4902 1 23.1937554181 37.0900609467 3.02249534826
4831 1 24.5231247484 36.5761867063 0.982959525089
5398 1 25.9644619567 37.2138209724 2.80421392328
5466 1 26.016186368 38.5005915287 0.466426773365
4907 1 24.5367576474 39.077745375 2.3418740648
5953 2 30.3207843671 35.3949509826 3.46970729398
5393 2 27.2112121364 35.3753011985 3.45271496843
5391 1 27.3799384448 36.4912735155 0.936835640122
5462 1 27.4465774905 39.0904389667 2.25594136425
5951 1 30.1373916053 36.4763661275 0.929537060362
5958 1 28.7830677088 37.1482060956 2.80813765051
6022 2 30.1739807841 39.1057190836 2.20319373291
6026 1 28.7564812421 38.4242955679 0.298407707794
6511 1 32.9391145472 36.5296889843 0.878894602611
6518 1 31.5923900825 37.2046924161 2.77753041203
6582 1 32.9391936596 39.1133399259 2.18663095994
6586 1 31.550089479 38.4392733962 0.273645968746
7146 1 34.3166546105 38.4714758094 0.252416636218
7078 1 34.3344605572 37.1863865787 2.79214406156
7071 1 35.7197682323 36.5496322171 0.873596870684
7142 1 35.7172626253 39.1182466813 2.17728115398
7638 1 37.0831639841 37.1938661827 2.79777714896
7706 1 37.1385086523 38.4971864382 0.254825610313
7631 1 38.4590899573 36.5504291175 0.872950987805
8191 1 41.3039765798 36.2694058308 0.879562989249
8198 1 39.7849639224 37.2093152836 2.7367718269
8266 1 39.9986389497 38.4199756663 0.258205613615
7702 1 38.5183283728 39.1367659725 2.20079101115
8262 1 41.2661429793 39.184420756 2.16566333719
8761 2 43.8706982087 35.366278274 3.29681089057
8751 1 44.051515206 36.6016166386 1.44169388245
8758 1 42.247286634 37.2340913376 2.98697031863
8826 1 42.537143186 38.1063931172 0.21977235361
8829 1 43.7732348829 38.9688684432 2.01639223409
423 1 1.29502897331 41.1172807843 3.06895745139
986 1 2.95397626792 41.6823344708 1.10557042436
422 1 1.63006132036 39.6921479188 0.504715066211
8885 2 0.43231665381 41.586995651 0.900754962272
987 1 2.70690050245 43.0269467029 3.70891595596
982 1 4.54803575344 39.9042539953 0.594688126109
983 1 4.34135051717 41.1712542662 3.00245404993
1542 1 7.23389369127 39.9826374107 0.428535449678
1543 1 7.21688971391 41.2780136345 2.95839568813
1546 1 5.83807249518 41.8612365303 1.09339413474
1549 1 5.8943507998 39.313721512 2.41531550935
1547 1 5.74406357462 43.0971674987 3.65435279327
2102 2 9.8770321292 39.9849614677 0.234839030872
2103 2 9.9284918622 41.404981508 3.00381993822
2106 1 8.62186480959 41.9164719911 1.02741722443
2109 1 8.67821681762 39.4089354296 2.31467939681
2107 1 8.61932568516 43.2043042188 3.59716994146
2666 1 11.4229936484 41.8728071124 1.03376336917
3229 1 14.1238592311 39.4648648657 2.15678108906
2669 1 11.4769959785 39.5170516846 2.20074748133
2662 2 12.9749054949 40.0065204315 0.164081734418