ITEM: TIMESTEP
2000
ITEM: NUMBER OF ATOMS
8960
ITEM: BOX BOUNDS pp pp pp
0.0 45.68
0.0 51.0717926061
0.0 44.6878185303
ITEM: ATOMS id type x y z
569 1 3.1644353847 1.42108712388 2.2497972995
566 2 3.30215241073 3.78047840113 0.890228107211
8465 2 1.11866553391 0.689557920952 1.89765658238
2 1 1.43531197084 2.47528063947 0.28084311109
3 1 1.1546801308 2.86433384987 3.61383337099
8401 2 0.0626352810351 3.7705953167 1.85709150088
562 1 4.45009999056 1.83337425421 0.284971427356
563 1 4.63179678998 3.17984474264 2.85850018049
1122 1 7.27415283341 1.81904994516 0.327439709236
1123 1 7.29409088063 3.13022640637 2.87415497901
1126 1 5.92286602341 3.75608487112 0.926111255503
1129 1 5.90473194705 1.21500838893 2.22135267532
1682 1 10.0635696419 1.82083366756 0.363168285251
1683 1 10.0519008716 3.12089774329 2.88987260409
1686 1 8.66991835681 3.74183562374 0.96598277671
1689 1 8.64814026719 1.19881390537 2.25716671448
2249 1 11.462817116 1.2130720241 2.27009613349
2246 1 11.4653069672 3.76497414252 0.993697275595
2242 1 12.8679475815 1.85693464254 0.370685888502
2243 1 12.8727107615 3.14788894788 2.90559698412
2809 1 14.2087674107 1.19110876465 2.30038069713
2806 1 14.2853553277 3.78893391826 1.00664359532
2802 1 15.6079868544 1.83679108779 0.461224340287
2803 2 15.6644902576 2.99976811104 2.96100245739
3362 1 18.4863327899 1.79080490735 0.495162674424
3363 1 18.4213840093 3.10721939161 2.89072606272
3369 1 17.088519831 1.11959474487 2.34176698223
3366 1 17.0591852697 3.76086878977 0.995698434304
3929 1 19.8221146645 1.11351559673 2.49590405144
3922 1 21.2402182919 1.75630053673 0.625308298388
3926 1 19.8373184346 3.7453613484 1.00202781861
3923 2 22.1143241634 3.73080878663 2.0040281147
4489 1 22.2695785655 1.45422606739 2.98065151129
4487 1 23.6985671039 2.26143770689 0.857785679912
4482 1 24.4374865261 0.5868592797 2.30387819483
5047 1 25.9059860561 2.58757732854 1.6299093026
4483 1 24.2581694918 3.13466805606 3.38331970751
5046 1 25.6107692741 0.2023841835 0.175480680956
5042 1 27.2254885102 0.634243003096 2.16406935807
5043 1 27.3028911759 3.17471375349 3.511702134
5602 1 30.0941829695 0.688977717002 2.17296446632
5603 1 30.0819127825 3.21460428313 3.45735390662
5607 1 28.6448458558 2.56702736729 1.57478736786
5606 1 28.6527949191 0.0466919482589 0.274641404076
6162 1 32.8679446992 0.700589408881 2.19172638015
6163 1 32.8789415913 3.22501363819 3.45168476044
6167 1 31.4665495226 2.62699824507 1.54683668595
6166 1 31.4836396343 0.0619587078443 0.273190141415
6726 1 34.2621601395 0.0672124232515 0.285807575448
6727 1 34.2977672876 2.57449582412 1.55944852602
6722 1 35.6783321131 0.668246028024 2.20997320775
6723 1 35.6939959569 3.2192913427 3.46425364315
7287 1 37.0879608984 2.58876998088 1.56025392925
7286 1 37.0772203937 0.044608560227 0.29428319457
7282 1 38.4267989187 0.662114186145 2.26340986711
7283 1 38.5134747995 3.20704227461 3.44952594105
7842 1 41.3103469121 0.66676167023 2.21267664652
7843 1 41.2202445838 3.16476307428 3.46038763824
7847 1 39.9171284655 2.59709391594 1.5526220531
8407 1 42.3659616007 2.8922918629 0.781416757241
8403 1 43.954298796 3.11169276554 3.35279712878
8402 2 43.7208217758 1.40750728564 1.70256349402
6 1 1.66324499661 5.28592546257 1.27125121141
639 1 3.04163261634 7.51737780852 2.24134946791
79 2 0.724195191394 7.14820673384 2.07915840695
1 1 0.272298282063 5.199268936 3.63044008652
567 1 3.07864181273 4.95449211953 3.50952651568
561 1 4.48531400764 5.68527615324 1.60180969305
1121 1 7.29988237813 5.67624010506 1.59222875378
1199 1 5.9106370706 7.55006172554 2.2581934078
1127 1 5.94074444104 5.09643897801 3.51013215816
1681 1 10.0483103179 5.68271089384 1.61497976473
1759 1 8.66363434254 7.60657656344 2.238993717
1687 1 8.67398754605 5.05139315171 3.52540889181
2319 1 11.432268985 7.59155102807 2.26328396805
2247 1 11.4420721283 5.05923309585 3.53055587928
2241 1 12.8663813736 5.68311756257 1.62239505641
2879 1 14.227092487 7.61308854241 2.27557195682
2807 1 14.2813817756 5.04514372311 3.50321666334
2801 2 15.6662106143 5.80803251776 1.56087715275
3361 1 18.4873123998 5.69889819734 1.59692920115
3439 1 17.1029541131 7.6146687784 2.28978354823
3367 1 17.0717698667 5.0525673645 3.46199595213
3921 1 21.3176226519 5.70971919552 1.05451587292
3927 1 20.0533806441 4.97608031436 3.30571591171
3999 1 19.9542569887 7.57848611215 2.11824678145
4557 1 22.5761366942 7.62453875005 1.96915601419
3995 1 22.7000603075 5.41015625739 3.46526216315
4481 1 24.1928888364 4.70719983373 1.14171766332
4552 2 24.6234221912 6.76425984852 2.58179193448
5048 1 25.8821558418 4.95230293509 2.89255679307
5116 1 25.7613270083 6.4492336593 0.401761508335
5041 1 27.1916831246 4.50183548086 0.927532845997
5112 1 27.2431180322 6.9776889455 2.2641642993
5601 2 29.9084761773 4.49209888432 0.922167889285
5608 1 28.6411636817 5.100331425 2.85053899205
5672 1 30.0760459742 6.98571849916 2.19978962038
5676 1 28.6153141469 6.41530572123 0.319940022496
6161 2 33.009074937 4.48957536838 0.909179813212
6168 1 31.4747226664 5.09698971016 2.78419118872
6232 1 32.8636362931 7.01127745539 2.17321801223
6236 1 31.453955772 6.38339981896 0.290854092206
6796 1 34.275601097 6.4074656548 0.269831313253
6728 1 34.2987992521 5.13498437007 2.82704640286
6721 1 35.6917994205 4.49984016972 0.897547698401
6792 1 35.6961420615 7.04521377512 2.16482596058
7288 1 37.1148233227 5.12612457677 2.78081425371
7356 1 37.1013295517 6.38832024925 0.247445524905
7281 1 38.5087924855 4.47402819867 0.846436651405
7352 1 38.5025210211 7.06021621874 2.15879406919
7848 1 39.9994574617 5.11588382928 2.63511204128
7912 1 41.366609891 7.05673580203 2.04055522276
7916 1 39.8024541097 6.44855227307 0.23606928737
7841 1 41.88093183 5.07936028793 0.34071729982
8408 1 42.557070063 5.00609872515 2.74167194582
8472 2 43.663705926 6.2502465311 0.916629418581
8404 1 44.8859807673 7.79105710893 3.65341047888
72 1 1.68679612285 8.17679318873 0.261325684011
73 1 1.48281336979 9.54334342106 2.84074160022
636 1 3.10214461125 10.0063191832 0.96876238576
637 1 3.2788924716 11.3481649179 3.6239933446
134 1 0.354599071909 10.5049679609 0.489069059915
71 2 2.02228581461 11.7479321335 1.87441029267
632 1 4.48982232278 8.14912751741 0.332355486019
633 1 4.49602186826 9.39472176951 2.8819438519
1192 1 7.2575993514 8.23501558833 0.310325450598
1193 1 7.24119149153 9.51379025378 2.85163203266
1196 1 5.82013677913 10.1101211677 0.947194855948
1197 1 5.81830364686 11.4003515291 3.51743878725
1752 1 10.0509596942 8.23909241269 0.327179998229
1753 1 10.0570383346 9.51875065062 2.86648785999
1756 1 8.6432458943 10.1300790466 0.964743299385
1757 1 8.64007541789 11.4259632807 3.51586739212
2317 1 11.4418188699 11.421901475 3.54668178087
2316 1 11.4655152722 10.1307306187 0.992044466727
2312 1 12.8455397497 8.23412307431 0.344948867818
2313 1 12.828491674 9.50265602931 2.91767554296
2876 1 14.2232933871 10.1574382874 1.02924080882
2877 1 14.2322574672 11.4220345937 3.5641412927
2872 1 15.6334422408 8.23205322335 0.393690705249
2873 1 15.6536512759 9.51008391731 2.93436040079
3432 1 18.3749235798 8.33061919881 0.378189043572
3433 1 18.481777519 9.53714145441 2.88488496992
3436 1 16.9878937535 10.2137363519 1.04714541975
3437 1 17.0502721199 11.4368154286 3.56568310862
3993 1 21.2447295968 9.5179657532 2.72311558853
3996 1 19.7947149743 10.2274105694 0.973100994837
3992 1 21.2871291951 8.42139083829 0.148329171461
3997 1 19.8673256374 11.4282802169 3.62396260682
4551 2 23.5619212035 9.46287441281 0.379010045011
5117 1 25.1869650803 8.83579736422 2.01184289813
5111 2 26.7042366124 10.237888594 1.23166810571
5113 1 27.4072455115 9.49058873937 3.39102725909
5671 1 30.138568146 10.8822455492 0.978937197068
5673 1 30.095779794 9.55512381777 3.48995179463
5677 1 28.7706894609 8.90638020084 1.5738731741
5678 2 28.7731950509 11.5153345707 3.09264169803
6231 1 32.8636574891 10.8616565085 0.890831602132
6233 1 32.8609932041 9.57682013336 3.44513074023
6237 1 31.4599409791 8.92678450625 1.55724602747
6238 1 31.4521969258 11.5167303656 2.84838200271
6797 1 34.2497209998 8.95396859027 1.53486384514
6798 1 34.2345049469 11.5132784971 2.79810179227
6791 1 35.6241066432 10.8823315697 0.860527812368
6793 1 35.6533371131 9.58947649336 3.41619717582
7357 1 37.0616998272 8.9901686014 1.50249010332
7358 1 37.0273427541 11.5187692709 2.74449607217
7351 1 38.3935009306 10.9350124537 0.779396037577
7353 1 38.4933518915 9.60061298196 3.34526779662
7911 1 41.2390950379 10.9268894096 0.494029011953
7917 1 39.77923969 8.96059259169 1.32392512276
7918 1 39.77814044 11.5763324033 2.61600918417
7913 1 41.0666696253 9.61390545247 3.18379766957
8477 2 42.135602904 8.99266296652 1.17364100956
76 1 44.6678343807 8.28934674588 0.579079618295
8473 2 44.7504195291 9.78386470521 2.46619950326
8478 1 43.6719100458 10.4382673924 0.214779285844
709 1 3.10962637567 13.9983671868 2.20604362672
706 1 1.01510626881 13.4755169179 1.04042661828
143 1 1.05923472448 15.4520162948 2.49027187122
769 2 0.05766380128 15.1987440384 0.0674530065641
631 1 4.46015804519 12.018356698 1.55613025343
1191 1 7.22574343996 11.9979442224 1.58478775599
1262 1 7.27275737987 14.5572221448 0.358440147594
1269 1 5.78715185399 13.9126042646 2.19328654426
702 1 4.34454853282 14.6718215668 0.30707034063
1263 2 7.34402755421 15.5244449947 2.7615521271
1751 1 10.0704253583 12.0125935483 1.60973743692
1822 1 10.043697101 14.6097008404 0.329343035106
1829 1 8.70879716074 13.8574124994 2.22727443948
2389 1 11.397547446 13.9888903184 2.27533578435
2311 1 12.8191966129 12.0752182578 1.64862134462
2382 1 12.7879420128 14.6561766328 0.374825238408
2949 1 14.1988113888 14.0130244296 2.28140382772
2871 1 15.59739947 12.1007343644 1.67036620106
2942 1 15.5720909243 14.688144631 0.37981195246
3431 1 18.4337548005 12.1271566303 1.67767640882
3502 1 18.3838866087 14.6815754436 0.340645215282
3509 2 17.0112195358 14.0198262611 2.28593255939
3991 1 21.0929758523 12.1946080136 1.61681342297
4069 1 19.7994708361 14.085915118 2.31289936739
4062 2 20.9764742035 14.6522876824 0.288516293486
5118 2 23.2930175635 12.3324607532 1.50319191492
4622 1 24.3210068616 13.8808932109 2.92553765394
5182 2 26.2078198175 13.5500532321 1.46669345865
5742 1 30.0099116249 13.4215315171 2.19045240921
5746 2 28.807498193 12.7763548221 0.0972909320553
5747 1 28.3999930831 15.162961584 1.55333346451
6302 1 32.8052199332 13.4402131432 2.18066283171
6306 1 31.4336723851 12.792325291 0.273483929173
6307 1 31.3533814857 15.3524670148 1.61393609833
6867 1 34.1904048605 15.3635636744 1.53348110923
6866 1 34.2026773404 12.8041177216 0.273101665495
6862 1 35.5997530814 13.4438325417 2.15640585831
7426 1 36.9841998124 12.8360637446 0.226322071997
7427 1 36.9304403944 15.3853900548 1.48132715652
7422 1 38.3325130544 13.4922378591 2.0882649482
7982 2 40.8086186316 13.68643933 2.33035894717
7986 1 39.8568800271 12.9142008092 0.203822875706
7987 1 39.6234838767 15.4912598549 1.4710035919
8474 1 45.3353564748 11.9443096871 2.28803959951
77 1 42.7090435327 12.7075534506 1.30506783309
141 1 44.4832120536 14.2366522347 1.79726484023
8547 1 42.3490839453 15.4698804598 1.61130077363
7914 2 43.4179691762 12.2907875833 3.48721769298
8543 1 0.867762501933 17.3789347652 0.485613688319
213 1 1.8581213695 19.0296176884 2.24036475503
703 1 3.15742934166 16.8414419655 1.42268335781
701 2 4.04496967042 19.2106414845 2.07382304973
710 1 4.56664747947 15.825572326 3.00572615063
1266 1 5.87167028683 16.4195259633 0.952174663479
1261 2 7.2735578789 18.5211237557 1.51762674772
1821 1 9.95107914339 18.4672281321 1.70226511555
1823 1 9.97345942392 15.9007973133 2.91166153921
1826 1 8.63156389493 16.5191663701 0.989479364149
1827 1 8.45028373963 17.7513227928 3.55776803046
2387 1 11.3676783137 17.8400556617 3.54235491786
2386 1 11.3735277986 16.5694591411 1.01028786481
2381 1 12.763365811 18.5042349969 1.63584967484
2383 1 12.7891207153 15.9247737828 2.90920119497
2946 1 14.1750915143 16.5847304558 1.00224568993
2947 1 14.1851973626 17.8562447252 3.53121701792
2941 1 15.5912089713 18.4843945086 1.62518655887
2943 1 15.5844014404 15.9450935796 2.8892856624
3501 1 18.3441099424 18.5574622918 1.58017126599
3503 1 18.3600579628 15.9455179044 2.90887606203
3506 1 17.0090437107 16.5968621315 0.978058588623
3507 1 16.9972699364 17.84755313 3.53398289674
4063 1 22.7780875671 15.9619153744 1.42367240263
4627 2 20.8783891998 16.3140226387 2.85738068211
4061 1 21.1841500862 18.3876574314 1.62879685289
4066 1 19.7096369563 16.5991220998 0.928899613383
4067 1 19.6235347958 17.9705108653 3.54474720509
4628 1 22.7966032108 18.0111181089 3.36491008951
5187 1 25.2932735378 15.7188799685 1.25256304468
4621 1 24.0541121603 18.0637367686 1.18663331215
5188 1 25.8044402386 18.1460800525 2.847796193
5256 2 26.036242278 19.2096947199 0.368525762481
4623 1 24.5903138 16.2595814144 3.48687863504
5181 1 27.174799202 17.2863783109 0.899484612163
5183 2 27.1315878057 16.4223288814 2.99662711327
5741 1 30.0075255944 17.2480119373 0.922053892426
5743 1 29.8197735134 15.9302124116 3.49661236691
5748 1 28.6981416685 18.0175808177 2.75294379561
5816 1 28.5966789476 19.23005013 0.339614013393
6301 1 32.7886598642 17.2692060939 0.936004167266
6303 1 32.8215615001 15.9874717583 3.47603399298
6308 1 31.3868109501 17.8754042235 2.86514795943
6376 1 31.3826134764 19.2071626517 0.31002512476
6936 1 34.136199368 19.2251482687 0.279859057817
6868 1 34.2176934927 17.8691617625 2.8070568744
6863 2 35.5750049864 15.7683824037 3.48621288927
6861 2 35.5361626664 17.3409847461 0.754632306855
7428 1 36.863735235 17.9121256048 2.77494848702
7496 1 36.8978426632 19.2534028311 0.22941884429
7983 1 40.8773520382 16.1038710103 3.42814749984
7421 1 38.224181201 17.3356763811 0.828423084699
7423 1 38.2033471077 16.0460088568 3.4285216791
7981 1 41.1212834032 17.3311626541 0.818284430697
7988 1 39.5695057181 17.9378155104 2.67278733457
8056 1 39.7031221949 19.2246601387 0.255123998849
8610 1 44.078228022 17.1322424591 0.880383450272
8544 1 42.57876667 17.8146316549 2.73829178665
8616 1 42.5937259198 19.1722489942 0.33066096129
147 2 44.3073431172 15.8891366842 3.24086936721
218 1 45.5879154595 19.5848493903 0.46755948847
779 1 45.5926389339 17.952818754 2.81570306552
776 2 1.93039438619 21.0119408995 0.802337827149
220 1 0.675170785746 20.9325749753 3.07364906555
772 1 4.24052400373 21.1058981613 0.413503431162
773 2 4.4209832401 22.4060533546 2.89647537536
1332 1 7.12062488475 20.998234219 0.40840515431
1333 1 7.15540794722 22.3458132588 2.87703050787
1336 1 5.67427330032 22.9756562504 0.979302735048
1339 1 5.77975614061 20.5405486674 2.29541129154
1892 1 9.95579748516 21.0627758863 0.392367751493
1893 2 9.81377140413 22.3148685721 2.87063840751
1896 1 8.50133746155 22.954951757 0.969467038564
1899 1 8.52950199819 20.3742923355 2.27176330395
2459 1 11.3485404778 20.4152398152 2.26635136615
2456 1 11.3567844754 22.9388649773 1.01220808282
2452 1 12.7652824779 21.043172462 0.360529802409
2453 2 12.9221121237 22.2417348507 2.75556576156
3016 1 14.2082393365 22.9539049254 0.948032946319
3019 1 14.2184938372 20.3837413629 2.23549368764
3012 1 15.6062444899 21.041515573 0.314525686533
3013 1 15.5920052323 22.3398983672 2.88729149053
3572 2 18.2830636825 20.8770200481 0.382481520424
3573 1 18.4099732548 22.3500722709 2.93946888429
3576 1 16.9547180047 22.944207486 0.968347618911
3579 1 16.9621632906 20.4510147121 2.26530519333
4697 1 22.4514974042 20.4403146318 1.8377751145
4139 1 19.8395688958 20.4543295161 2.28644019611
4691 1 22.5811785511 23.0277281479 1.42094592346
4133 1 21.5658279815 22.166715942 3.4351979022
4136 2 20.2209827343 23.0587929811 1.80985270674
4692 1 24.622387009 20.0656346573 2.4076785875
5257 2 26.0411893895 21.8689369096 2.02932447336
4755 1 24.2921443917 21.0155749744 0.160171224369
4762 2 24.3739673356 23.5312199201 0.251357199375
5252 1 27.3131610755 19.9575429404 2.31510152879
5253 1 27.3454343697 22.4748304007 3.68831888082
5812 1 30.0328873984 19.9012498569 2.22332746661
5813 1 30.0243781177 22.4326619808 3.52211918638
5817 1 28.5909777219 21.8725362949 1.61768464358
6372 1 32.7949401501 19.8204642087 2.22373083458
6373 1 32.8049874943 22.4120283071 3.50845583859
6377 1 31.39926093 21.8007244006 1.59044097987
6937 1 34.15939936 21.7812687967 1.57892081758
6932 1 35.5319488944 19.8673897567 2.19060686038
6933 1 35.5526601064 22.4301564765 3.49254278255
7497 1 36.9052091238 21.7969247125 1.5350275298
8052 1 41.1004229529 19.7794274162 2.18717005795
7492 1 38.2350789611 19.8801572608 2.13457673032
7493 1 38.2901752221 22.4186341267 3.42610599207
8053 1 41.0887846288 22.3621384417 3.50473604085
8057 1 39.7468295466 21.7570245088 1.54428888768
8548 1 43.9653538214 19.772464903 2.2708875413
216 2 44.8559878113 21.8013051153 1.56264398797
8617 1 42.4371221135 21.6404864191 1.70356390701
8613 1 43.8414736464 22.2720374931 3.56904486654
211 1 0.899757236128 26.1327425782 2.46811062433
849 2 3.05844122257 27.2016670293 2.26896626022
777 2 1.98194203243 24.1680993541 2.3119961109
219 1 1.22193276217 24.5308217849 0.158790418461
282 1 1.56641143386 27.4942071036 0.541754849522
771 1 4.06094472177 24.8119603875 1.40903110802
1331 1 7.06836666503 24.8806732055 1.62474234056
1409 1 5.59439279744 26.7325160101 2.31635433531
1337 1 5.71168338828 24.2486021907 3.48933410372
1402 1 7.12207136735 27.3781156331 0.401504338669
842 1 4.36619443023 27.4933233538 0.338173749071
1891 1 9.95359632606 24.8194807964 1.65453309767
1969 1 8.52689256177 26.7411948527 2.28501502683
1897 1 8.52462253275 24.2443051575 3.52683826229
1962 1 9.9517797728 27.3834238009 0.378257896247
2529 1 11.35044939 26.7252888821 2.2773227281
2457 1 11.3806343893 24.145045111 3.52902296122
2451 1 12.76248144 24.8169905216 1.64539312924
3089 1 14.1504448323 26.7395053415 2.27326287985
3017 1 14.1551685395 24.209809079 3.53851445882
2522 1 12.7491359925 27.3855673467 0.370548225164
3011 1 15.5970238733 24.8355812161 1.64180599701
3571 1 18.5716084246 24.7790034034 1.51844841855
3649 1 16.9599261792 26.7321661707 2.28259261052
3577 1 17.0175258768 24.236199435 3.51379842893
3082 1 15.5600157752 27.4088247356 0.36376300593
3642 1 18.1801974301 27.416688389 0.29486477382
4131 1 21.5016357846 25.2376647553 2.0186055184
4209 1 19.503920991 26.8723479881 2.19894091792
4202 2 21.4936664265 27.3582261516 2.96593621866
4134 1 19.8928090685 24.3506224028 3.68417091774
5258 1 25.7386411262 24.2894939003 3.19993027776
5329 1 24.3281502314 25.3975226565 1.5040482657
4769 1 23.7987557772 26.594809937 3.42414070104
5326 2 26.1265780972 26.0849818557 0.274216277003
5251 1 26.9573967782 23.801708521 0.950799539536
5811 1 29.9609889398 23.7339388867 0.953796964744
5322 1 27.1511717439 26.2908993549 2.26764755357
5818 1 28.5938461284 24.3898858356 2.85560967334
5882 1 29.9988168684 26.2856662146 2.26247844972
5886 1 28.6093841117 25.6674804628 0.349990574565
6371 1 32.7780585165 23.7230295328 0.949513540475
6378 1 31.4007281385 24.3512385837 2.87222731848
6442 1 32.7960228077 26.2819336164 2.24919899308
6446 1 31.3876220584 25.6506482667 0.321394433403
7006 1 34.1753589705 25.6440510779 0.310497853433
6938 1 34.1773338031 24.3571194463 2.87259189331
6931 1 35.5462466769 23.7191381745 0.927008085915
7002 1 35.5894173197 26.279547202 2.22563130459
7498 1 36.9429049781 24.3469812992 2.83415211501
7566 1 36.9835874526 25.6221592794 0.303952863208
8051 1 41.269903594 23.640766253 0.856929016106
7491 1 38.3674519926 23.6960820055 0.92368738789
7562 1 38.3909445308 26.2436932337 2.21709301645
8058 1 39.7911729007 24.301174778 2.79548231282
8122 1 41.2436150459 26.2215500015 2.20050748702
8126 1 39.824982001 25.5965703457 0.30688038697
8611 1 44.0669576415 23.8465935455 1.0605652798
217 1 45.5405555747 23.7843268527 2.95926713292
288 2 45.2275772863 25.965980526 0.453516372701
8618 1 42.5320781338 24.249505143 2.87413927002
8682 1 43.9909477355 26.0655728365 2.33625327202
8686 1 42.6354690835 25.7097638637 0.272039848447
286 2 0.825163092211 29.7892769681 1.173453937
846 1 2.97586368897 29.4650728419 0.958231157939
283 1 1.29450134804 28.5739915316 3.24170689648
847 1 2.951478831 30.749598706 3.47407021212
843 1 4.41866087092 28.9638910108 2.77770548223
1403 1 7.10282131552 28.6444889592 2.90354823949
1406 1 5.83350089893 29.3639616554 0.939168351995
1401 1 7.20976490532 31.2694170027 1.61243402417
1407 1 5.84104075409 30.6676929958 3.53747700197
841 1 4.43814069675 31.2731804825 1.61197185486
1961 1 9.95445507382 31.2410534755 1.64457294787
1963 1 9.94316689145 28.6616493297 2.91398671637
1966 1 8.55899975481 29.3071599892 1.00764362462
1967 1 8.54543125667 30.589163961 3.54678061825
2527 1 11.3336906094 30.6017352785 3.5634936859
2526 1 11.3387442628 29.302758622 1.00275651077
2521 1 12.7084200472 31.2206475186 1.63560621021
2523 1 12.7290396438 28.6620129747 2.90596283234
3086 1 14.131096755 29.3136361014 0.997202372752
3087 1 14.0962197441 30.5922686577 3.54223043415
3081 1 15.5066892399 31.2479163274 1.63173409482
3083 1 15.5370011471 28.6753522475 2.90148388277
3641 1 18.439100061 31.1704954209 1.70578435071
3643 1 18.241674926 28.8357527145 2.94336003769
3646 1 16.8640999083 29.3689597169 0.979265059044
3647 1 16.8644247801 30.6631148215 3.53557103491
4203 1 20.9063542117 29.5441177787 2.6534043676
4201 2 22.0583982056 30.2841888393 0.743400133781
4206 2 19.3252998914 29.2189497869 0.874307247209
4768 1 23.4744443322 30.4574738208 2.46935848442
4767 1 22.9225181 27.881278098 1.38193444486
4761 1 24.4279246117 29.8475930963 0.412626498425
5327 1 25.253347087 28.0874205404 2.02026259352
5328 1 25.7820416511 30.7169078581 2.66350089139
5323 1 27.2251638466 28.7854383058 3.32551501865
5321 1 27.1484169628 29.9962804773 0.876577064494
5881 1 30.0487685117 30.1263493258 0.887978815756
5883 1 30.0617736545 28.8023963327 3.4656191056
5887 1 28.7249494643 28.2243469874 1.576952898
5888 1 28.6213213586 30.7274513999 2.75715108288
6441 1 32.8502190308 30.097175836 0.905475802489
6443 1 32.8194057043 28.8111131626 3.50631992249
6447 1 31.4303159167 28.1907488877 1.56214260313
6448 1 31.4615482389 30.7285421282 2.80345605255
7007 1 34.2194481252 28.1892223701 1.58999784651
7008 1 34.2672187731 30.7140890013 2.84584404748
7001 1 35.6631557795 30.0822302855 0.953240194878
7003 1 35.6574223333 28.8276221406 3.51582429406
7567 1 37.0413073139 28.1865397989 1.58175937716
7568 1 37.1604679493 30.7332226832 2.89898100377
7561 1 38.4855017129 30.1338820817 0.968078398044
7563 1 38.3842861229 28.7034846657 3.56812565419
8121 1 41.1478619479 30.1010270818 0.926416472678
8123 1 41.2832597244 28.6918168285 3.50275323896
8127 1 39.8179374625 28.1494521315 1.58991398714
8128 2 39.8405665526 30.3317991074 3.13824055482
287 1 45.581344319 30.6271389339 3.24458863415
289 1 45.1390232216 28.0808453656 1.68068991179
8681 1 44.0526881121 29.9829007669 0.790456677817
8687 1 42.5785121937 28.1755513373 1.50802638463
8688 1 42.5730905213 30.7453199916 2.76529984116
8683 1 43.8258029635 28.7619725316 3.46622961283
281 1 1.43855610753 31.9329626595 1.80399991384
353 1 1.45118777779 34.414143019 2.75124733044
919 1 3.26896445174 33.2128994222 2.190164349
918 1 1.870888839 34.0058141521 0.139647561427
912 1 4.43791310941 33.8876041215 0.289636942436
913 1 4.50517966043 35.0622066515 2.95774922227
1472 1 7.20769517472 33.8137526955 0.311379735085
1473 2 7.21407868038 35.083906436 2.92729443601
1479 1 5.83948757801 33.1759931183 2.21730683943
2032 1 9.98549823565 33.8246782758 0.364010817907
2033 1 9.95122756037 35.1022419544 2.94275908174
2039 1 8.59159811894 33.1759763203 2.26193395863
2599 1 11.3352927376 33.1691755308 2.30051299014
2592 1 12.7218926183 33.7983040068 0.368578260844
2593 1 12.7179742567 35.0844298929 2.99408525226
3159 1 14.0495557278 33.1235854584 2.27244306617
3152 1 15.4991708835 33.7740407413 0.37859177789
3153 1 15.4359668201 34.943622189 2.84753983531
3712 1 18.3506840902 33.7044032757 0.346447463272
3719 1 16.9056035708 33.1149429849 2.24769354952
3713 1 18.3382136493 35.0383125055 3.04967485227
4279 2 19.454047379 33.1136647686 2.20750054864
4836 1 21.4933701813 32.2264197023 1.98262253625
4839 2 22.3315150303 33.8513212456 3.40228988376
4832 1 24.2590819076 32.7553233611 2.32341665998
5396 1 25.6876029925 31.986488729 0.271731092717
5397 1 25.6807881384 34.6881908501 1.64570785867
4838 1 22.9026184589 34.721521167 1.44963151296
4824 1 23.0167265653 32.1441384217 0.0486779468115
5392 1 27.1848280405 32.6348490272 2.09238095152
5393 1 27.2308154785 35.1197842382 3.47344579188
5952 1 30.0394770166 32.6356875788 2.14085075213
5953 1 30.054403416 35.1397362382 3.42567653714
5956 1 28.5863771454 31.9855244714 0.227826660443
5957 1 28.6052314744 34.5521007561 1.53363601218
6512 1 32.8856937089 32.6279568432 2.1658383617
6513 1 32.9201523503 35.143824035 3.44218716185
6516 1 31.4598913521 32.0131333472 0.24249133776
6517 1 31.4799740025 34.5411203305 1.52747334419
7076 1 34.2825370525 31.9904912382 0.255647959596
7077 1 34.3269937316 34.5290766281 1.53906618919
7072 1 35.7034518038 32.6001850472 2.19013221653
7073 1 35.7447935211 35.1199871987 3.48503566594
7636 1 37.0057524323 31.9664019142 0.18032361024
7637 1 37.0347938436 34.5843957077 1.51055207128
7632 2 38.2500354486 32.7548392875 1.87019899991
8192 2 41.3512067564 32.6972654717 1.80939504681
8197 1 39.9452937482 34.6064547744 1.45092880312
7633 1 38.5471963729 34.97608336 3.45013291526
8193 1 41.454762067 34.9034226068 3.56513534852
8196 1 39.8255589495 32.0306893583 0.0861651531161
8752 2 44.398062496 32.077487785 1.47044316699
8753 1 45.44973655 33.9600850174 1.07346264854
8756 1 42.6030853904 31.8245298018 0.0406525830797
8757 1 42.9204381344 34.2943860135 1.72344103623
359 1 45.1265413022 33.0458881355 3.34670806257
356 1 0.607178955649 36.0704333728 1.16349632875
351 2 1.88772138493 37.8247599145 1.44119958123
916 1 3.04765525927 35.8159546661 1.29988633807
917 1 3.28111649453 36.9602018308 3.5541020985
357 1 1.02278678612 36.5824659094 3.51177506357
911 1 4.56918679476 37.660651038 1.6243563371
1471 1 7.24080843448 37.6434368255 1.68333533394
1476 1 5.85179992611 35.7154614135 1.01276455445
1477 1 5.84054580527 36.9798279432 3.61052912531
2031 1 9.97382783646 37.6473222131 1.67773516778
2036 1 8.60069399624 35.7334736586 1.00292475519
2037 1 8.58305098465 37.0075108866 3.60769235273
2597 1 11.3277442175 37.0176227367 3.61725820415
2596 1 11.3715918034 35.7383616508 1.03419934923
2591 1 12.7604229398 37.6505856941 1.71137036019
3156 1 14.0736057719 35.7032255155 1.08236525483
3157 1 14.1204145486 36.9843998532 3.637338014
3151 1 15.5814914672 37.5659816889 1.74486726114
3711 1 18.2945778512 37.3771443509 1.85942066435
3716 1 16.921514951 35.5958368599 1.15195059007
4837 1 19.892707914 35.4339973685 1.11366846045
4277 2 20.1547423619 36.5897635267 3.40305901339
4271 1 22.0966233991 38.192222174 2.31461906575
4276 2 21.7282935136 36.6111823675 0.40829211424
4349 1 19.751876341 39.0646923333 2.59923271966
4902 2 23.9042702073 36.5752917543 2.62670205421
4831 1 24.2969199513 36.766776798 0.504088320873
5398 1 26.0041621125 37.1069525833 2.75147306311
5466 1 25.8909237248 38.4524946243 0.165812322383
4907 1 24.4250098652 38.9750977535 2.05581483832
5391 1 27.2241081866 36.4661091923 0.82815790022
5462 1 27.2605492335 39.0143061982 2.10532494685
5951 1 30.0603606801 36.4481813552 0.892493771815
5958 1 28.6267402081 37.0604934492 2.78833324538
6022 1 30.088049045 38.964886144 2.1339436655
6026 1 28.6859792509 38.3579224469 0.242942110539
6511 1 32.9159232356 36.4470760207 0.900452390916
6518 1 31.5011996675 37.0512565345 2.79478114611
6582 1 32.9333001014 38.9688891004 2.16943065941
6586 1 31.5040127365 38.3518606787 0.254997522464
7078 1 34.3520244044 37.0582393077 2.8215661266
7146 1 34.3354475126 38.3830677585 0.274531757545
7071 1 35.7166761327 36.4845634766 0.901024053363
7142 1 35.8019941453 38.9747106871 2.19853929177
7638 1 37.2085708526 37.0223058749 2.83462294704
7706 1 37.1891660762 38.391534946 0.288586832696
7631 1 38.4890134952 36.4275110169 0.884826668019
7702 1 38.6615408203 38.9689911233 2.22186727267
8191 1 41.4466846018 36.3825539366 0.903240028468
8198 1 39.9276926582 36.8194510891 2.86054407393
8266 1 39.962485032 38.2702525351 0.185286435029
8262 2 41.0968979887 38.5519143611 2.08491929182
8761 1 44.5215656881 35.4681924508 3.11478878172
8751 1 43.9602632885 36.2390930152 0.745129219672
8758 1 42.6735283372 36.996230999 2.9460889037
8822 1 44.9491735716 37.9890398546 1.95479637887
8826 1 42.9768334222 38.4218326212 0.420551813875
989 1 3.27532865144 39.6844267126 2.3000205536
423 1 1.17315603352 41.674527386 2.72874102515
986 1 3.0983361839 42.0804111994 1.19644163244
422 1 1.85818017618 40.0676790025 0.446726649617
426 2 1.01853310728 42.2258861022 0.225582521112
982 1 4.54097955855 40.3188293854 0.319950142884
983 1 4.63183831642 41.586584537 2.91699713803
1542 1 7.2506742335 40.2421362533 0.384478855308
1543 1 7.2105571622 41.5152891232 2.97399094364
1546 1 5.9104807888 42.2052502245 1.02222670519
1549 1 5.85924166692 39.5982256483 2.26830444996
2102 1 10.0073006704 40.2230184266 0.383391699667
2103 1 9.97728723962 41.4838404596 2.95541817151
2106 1 8.59846231357 42.1301378903 1.04807218036
2109 1 8.60844573985 39.5870687336 2.29824376694
2669 1 11.3502672646 39.5650992533 2.32242881788
2666 1 11.4106864917 42.1003624914 1.03464405522
2662 1 12.8137354193 40.1948556597 0.437595276093
2663 1 12.7713724877 41.436752408 2.99074592204
3226 1 14.2352433824 42.0332111068 1.162901522
3229 1 14.1952660765 39.504933031 2.40044068791
3222 1 15.6387393368 40.0997327908 0.529504091414
3223 1 15.6308701145 41.3714755606 3.07196209386
3786 1 17.0107459583 41.9751130955 1.18774502402
3789 1 17.0474775943 39.3931839523 2.45342954422
3782 1 18.5037999308 40.1033156212 0.578268851868
4346 1 18.4576808222 41.3893132167 3.07503554534
4342 2 21.9934312508 41.8060063573 3.36900724032
4419 2 21.9881455136 43.0887625014 0.524733624976
4410 2 20.9029757968 39.9633413269 0.873700854157
4341 1 23.0670300543 40.8457624476 1.53321535649
4903 1 24.5392892711 41.5895873755 3.37400650949