ITEM: TIMESTEP
22000
ITEM: NUMBER OF ATOMS
8960
ITEM: BOX BOUNDS pp pp pp
0.0 45.68
0.0 51.0717926061
0.0 44.6878185303
ITEM: ATOMS id type x y z
569 1 2.81024848275 0.863112844977 2.27318159045
2 2 1.67343880834 1.8360951506 0.260430404335
566 1 2.97460062234 3.53623939457 0.924638913717
3 1 1.51004413958 2.74116138343 2.82293416253
8465 2 0.286348611396 0.34572801434 2.75665607553
8401 1 0.14475104134 3.3993303491 0.86041629658
562 1 4.26242084548 1.51428190131 0.338334233364
563 1 4.32130084989 2.81473128881 2.86965353105
1122 1 7.11955405367 1.57463457755 0.353573991327
1123 1 7.12294619971 2.8642585718 2.89506023729
1126 1 5.69889484012 3.47905245562 0.969309255857
1129 1 5.76637381938 0.921317161961 2.23654956049
1682 1 9.91214958865 1.64770045276 0.356308227505
1683 1 9.91430963236 2.92309355443 2.92182508819
1686 1 8.5116071929 3.52895353635 0.992068178867
1689 1 8.5371334558 0.982992614359 2.2712444476
2246 1 11.265592812 3.60930154437 1.00446569098
2249 1 11.3060797676 1.01901608509 2.29023493644
2242 2 12.5360861552 1.77617745916 0.312929152044
2243 1 12.666461254 3.01237016427 2.91483178944
2809 1 13.8533336345 1.073501964 2.31824537338
2806 1 14.1906301925 3.41256565001 0.947086986432
2803 2 15.2950670891 2.82855443647 3.25181232647
3369 1 15.9761380367 1.58824101231 1.53615005623
3851 2 18.0549106778 1.2522964601 1.11703459722
3366 2 16.6086736915 3.92260803796 0.651310236426
3363 2 19.2124671061 3.746265596 2.75754754929
3362 1 19.9604396128 2.80837553905 0.54095855804
3929 2 19.7488373577 0.597449460006 3.4696976043
4411 2 21.1072774657 0.808395517993 0.393857127074
4489 1 21.8556289452 0.805382645834 2.47032565114
3923 2 23.5726396656 2.43789842351 1.45735857204
4482 1 24.5293708255 0.655650317038 2.40169842213
5047 1 25.858212829 2.68290122987 1.55106594556
4483 1 24.3954723428 3.36432402169 3.50705124122
5046 1 25.8476702269 0.151719912407 0.237280434155
4486 1 23.2777113297 0.185800753596 0.357872041231
5042 1 27.2217292466 0.797564575268 2.18096192343
5043 1 27.1152221012 3.43772816819 3.50200871952
5602 1 30.0116753984 0.882039635936 2.22280901112
5603 1 30.0055342241 3.3974274934 3.48504410202
5607 1 28.5849948076 2.75059731706 1.59845457204
5606 1 28.6390216045 0.213970738978 0.283618714679
6162 1 32.8379641202 0.907187437972 2.20724440305
6163 1 32.8214016634 3.44718406817 3.47376067637
6167 1 31.4308026885 2.78570540277 1.58321629793
6166 1 31.4434213588 0.236578444474 0.31666998671
6727 1 34.2530847841 2.83456127691 1.56560355639
6726 1 34.2672833903 0.272832465869 0.305103351437
6722 1 35.672888348 0.957253476451 2.19466480739
6723 1 35.6701513657 3.46500048479 3.43892861228
7287 1 37.1427653284 2.89528171203 1.5472731574
7286 1 37.0558064648 0.278951240307 0.313535352141
7282 1 38.4726821824 0.924158016146 2.18148667381
7283 1 38.519262282 3.44270393902 3.51394785605
7842 1 41.4401449082 1.20310866732 2.23162129091
7843 1 41.066618427 3.3307241895 3.47917605393
7847 2 39.8042802824 2.74291719224 1.3929449218
7846 1 39.9703819173 0.29661323802 0.310316751453
7841 1 41.7575448547 3.79312693475 1.28788158451
8407 1 43.5657538758 2.50179552473 0.521420953523
8402 1 43.9017870907 0.996772265002 2.40246779175
8406 1 42.6655256892 0.134836589878 0.462357148774
8 1 45.2285935597 0.732601061478 0.387794233507
8403 1 43.6262332012 3.31547156608 2.8730301053
6 1 1.6168386967 5.43189825149 1.42357240914
639 1 2.87561251487 7.37034746242 2.2104967574
567 1 2.89481208487 4.71097136146 3.44591244093
1 1 0.0375106357564 4.61610126006 2.92925720181
8404 1 0.0838694802046 7.15347538705 2.04698646534
561 1 4.3001398269 5.4620946095 1.55947761378
1121 1 7.11101134741 5.43918429476 1.61592714342
1199 1 5.7220147802 7.36517690242 2.23430273648
1127 1 5.71083338708 4.7825477668 3.5035193101
1681 1 9.88668569706 5.48580468348 1.64145412587
1759 1 8.49551093331 7.39470962475 2.26676874225
1687 1 8.51155457108 4.8257792562 3.54686051093
2319 1 11.3222399599 7.38292023229 2.29046774248
2247 1 11.2935619117 4.88081475718 3.5398033112
2241 1 12.742563024 5.43686227936 1.63931663689
2879 1 14.1224218942 7.40585673807 2.31098530393
2807 1 14.1500576865 4.87377996283 3.50362252276
2801 1 15.4082609849 5.60284702941 1.52501593314
3361 1 18.5282819674 5.16552731764 0.899336086319
3439 1 17.0386117417 7.23097973674 2.26213607383
3367 1 16.9266984224 4.65115599736 3.16901682464
3432 2 18.1672503812 7.68291329411 0.241577539935
3921 1 20.9208610253 4.94089297884 1.81867253461
4559 2 20.7364830912 7.01293856326 3.31303595901
3999 1 20.1808972008 6.93163460752 0.858498197931
4556 1 22.7888391142 6.23928012314 0.398412843352
4481 1 24.4094822261 4.50430238961 0.695561011259
4552 1 24.1592242362 7.29587059018 2.2484569027
5048 1 25.7046550979 5.28661200027 2.7456708065
5116 1 25.8432576108 6.43163390271 0.28541025521
3995 2 23.1906687258 5.29148820397 2.59627618135
5041 1 27.1593558147 4.59641708462 0.888165897649
5112 1 27.2663998531 7.12158541987 2.20133705068
5601 2 30.0311476375 4.66779596674 0.935333327071
5608 1 28.616385039 5.25055122179 2.80848301244
5672 1 29.9697958721 7.24245977722 2.25216965867
5676 1 28.6144333385 6.57905446633 0.311149133125
6161 1 32.8262218934 4.72386050143 0.953571815415
6168 1 31.4040258003 5.33567135159 2.85273638499
6232 1 32.7977454087 7.25917186324 2.24078271318
6236 1 31.4165071245 6.62603011774 0.34099235898
6796 1 34.2295577904 6.65915551904 0.32743448947
6728 1 34.2368681252 5.36511837464 2.84776602536
6721 1 35.6442049619 4.76888666867 0.938768237227
6792 1 35.6022877207 7.32505643664 2.27945063064
7288 1 37.0831589978 5.38193765027 2.86146727432
7356 1 36.8815412638 6.84384319263 0.266193885199
7281 2 38.1804117243 5.17612419311 0.83185205441
7352 1 38.4505079923 7.35026273343 2.246033983
7848 1 39.9625967812 5.30657774719 2.56191222976
7912 1 41.1956613167 7.47269106334 2.15972274348
7916 1 39.6990571984 6.89237004681 0.29247113925
8476 1 41.7805891621 5.94127986831 0.557376507107
8408 1 42.8554886845 5.56287475569 3.14639555236
8472 1 44.0199457933 4.88410233784 1.0460236992
76 2 43.6098655628 7.00096049884 1.23476960976
72 1 1.45956558365 8.16820180746 0.325422976414
73 1 1.50019865144 9.22466084199 3.03065524319
636 2 3.04350616151 9.86705147642 1.20422291088
637 1 2.8606630598 11.194139446 3.47879133385
632 1 4.29580813766 8.00520522161 0.329727102542
633 1 4.35238247687 9.27615102594 2.93513825456
1192 1 7.10123982872 8.04830730935 0.340358429263
1193 1 7.10293976243 9.31012271944 2.89051457472
1196 1 5.69189208367 9.94251818896 0.962261978718
1197 1 5.75387448199 11.2310883727 3.56223118277
1752 1 9.88959936873 8.06126672031 0.374795098267
1753 1 9.91545753741 9.30935351378 2.91235280235
1756 1 8.48687096409 9.97818137226 0.985179599196
1757 1 8.52430417345 11.2231876058 3.5401255747
2317 1 11.3466003974 11.2176936322 3.56684054998
2316 1 11.3038639902 9.97914091255 1.02507424352
2312 1 12.6736021547 8.07457532586 0.401757316632
2313 1 12.7391494043 9.30975632725 2.94332847333
2876 1 14.1495233844 9.93315382435 1.04986119692
2877 1 14.1907492512 11.1779771996 3.62667259368
2872 1 15.505175467 7.98703363596 0.370088112425
2873 1 15.5895993686 9.22425191918 2.96094931376
3433 2 18.0989329644 9.35839449742 2.83647309707
3436 1 16.8861168268 9.85612080984 1.00720010998
3437 1 16.9041870917 11.2117890325 3.63844154268
3431 1 18.3025923188 11.7723562753 1.77512791045
4557 1 21.637482854 8.96454745453 2.48813432414
3993 1 22.6973071935 10.8903380649 3.41492300834
3996 1 19.625548935 9.74048302794 1.08739014333
3997 1 19.8156640764 10.8165295058 3.42098048924
3992 2 21.5104320379 8.49394063532 0.159530501056
5117 1 25.9095567874 8.99964490513 1.70566480788
5118 1 23.4036715292 10.0031128611 1.16218151385
4551 1 25.4940383296 11.2731857392 2.42914994905
4554 1 24.3473829651 9.31010599756 3.49135811623
4615 2 24.5628071221 8.16642487226 0.038077970745
5111 1 27.1978733284 10.9646670227 0.859160922152
5671 1 29.9771686267 11.0677418675 0.954024211466
5673 1 29.9294990794 9.7897918737 3.54622716716
5677 1 28.5378314422 9.13460550966 1.62983358254
5678 1 28.4924508994 11.6000377008 2.82984866078
6231 1 32.7745474307 11.0928760305 0.972972295412
6233 1 32.7812305047 9.78950619617 3.53990546348
6237 1 31.3719677891 9.16308982959 1.62230642698
6238 1 31.3966452457 11.6914701104 2.87439448162
6798 1 34.1732372255 11.6677996258 2.91337200719
6797 1 34.181071808 9.20068903008 1.62590507594
6791 1 35.5693884976 11.1134426449 0.99136760042
6793 1 35.6298758509 9.79682393731 3.54732245811
7357 1 37.0123394575 9.23909846388 1.61649554244
7358 1 37.061745306 11.6864453197 2.88333674911
7351 1 38.4125353765 11.1711454172 0.892808414083
7353 1 38.5179646152 9.86557378785 3.52816482163
7911 1 41.1680561221 11.3016468899 0.732686635503
7917 1 39.8123223468 9.32717749001 1.53391400314
7913 1 41.3586340933 10.0460282804 3.68382647862
8477 2 42.2796592844 9.68484600601 1.64688008324
8473 2 45.4011194327 9.41834247799 1.65378243061
71 2 0.864725670967 12.1414082982 2.24463488434
706 1 2.82543872504 13.673003658 2.2929330394
141 1 0.341437214712 14.2477609182 1.87604246803
769 1 2.35429442749 15.1829414781 0.33299741896
708 2 3.32302202626 12.9428575022 0.00745572199363
631 1 4.4383481946 11.8707788588 1.66467976918
1191 1 7.08162583002 11.8813277097 1.59559701331
1262 1 7.08916693389 14.4994203104 0.432318742415
1269 1 5.80329313036 13.7495879837 2.41603007097
702 1 4.57023191692 14.7018193029 0.730475182253
709 1 4.20274243132 15.5979875048 2.94423178613
1263 1 7.19766244174 15.6618523196 2.90761753587
1751 1 9.91485721512 11.8807184294 1.63984321125
1822 1 9.89766595649 14.4742983825 0.369383169435
1829 1 8.54389330922 13.7723693852 2.2855715039
2389 1 11.3316578819 13.7959866608 2.28443898452
2311 1 12.7467235782 11.8690510644 1.67717450985
2382 1 12.7397879398 14.4409737451 0.384769351992
2949 1 14.1538921292 13.7871119411 2.3158205064
2383 1 12.7409797287 15.7101576629 2.89670873943
2871 1 15.5063668433 11.8438714925 1.73157857008
2942 1 15.5712914104 14.4164236262 0.427002674942
3502 1 18.4004990311 14.4288917313 0.647028250907
3509 1 16.9772264545 13.710484593 2.43876808916
2943 1 15.5644947057 15.6992535728 2.94308777554
3991 1 21.2314427902 11.8407148223 1.70562363692
4069 1 19.6767487553 13.538540441 2.61342548429
4622 1 21.9606402959 14.3151234913 3.11495275358
4062 1 21.0841675283 14.1743110633 0.569421902662
5186 2 25.9585180556 12.8522997676 0.319138800054
4626 2 23.1229093254 13.6804785757 1.17764588681
5182 1 27.1182120737 13.5738178518 2.25888731215
5742 1 29.9982595589 13.577614793 2.21416833965
5747 1 28.6245677457 15.4957866393 1.57272148752
5746 1 28.5709589585 12.9692839212 0.357660640587
6302 1 32.8490817575 13.6308994218 2.24120448296
6306 1 31.4162868062 13.0232076207 0.329333366287
6307 1 31.4617534987 15.5209475495 1.57156634957
6866 1 34.176394673 12.9991370112 0.34008171254
6867 1 34.3277121921 15.505026721 1.60291014997
6862 2 35.6131212011 13.395884299 2.3209475789
7426 1 36.9926367354 13.0048965059 0.258228684305
7427 1 36.8621779024 15.5218744548 1.58730184719
7918 1 39.7811175264 11.7905170941 2.79032643823
7422 1 38.3277141171 13.6752732094 2.18182694978
7982 1 41.1607649935 13.647106485 2.16683547262
7986 1 39.7435905538 13.1276260186 0.175157940927
7987 1 39.7103449729 15.5321872032 1.49835996493
7914 1 42.7784269737 11.8508425444 2.88602677017
142 1 44.9677063057 12.6319347843 0.038906115573
77 2 43.6901262421 13.7790241059 1.96594058992
8547 1 42.3188256818 15.7092884372 1.7112076
148 1 42.5307313455 13.1733368334 0.175085735955
8605 1 43.9863672156 15.2705525111 0.277818257137
143 1 1.69415549681 15.7897505527 3.05215473692
8543 1 0.435544278307 16.4858900163 1.07800337823
703 1 2.8203008524 17.2255520057 1.3949434321
779 1 0.95360058925 18.0594422702 2.92395483783
218 1 0.781373037794 18.6509202616 0.508679832142
710 1 3.32585565952 17.9362532694 3.6984683338
701 2 4.45863079627 18.6741730492 1.19345002793
1266 1 5.75342411232 16.5780786675 1.08460714035
1261 1 7.08047526722 18.4149763494 1.64106231405
1267 2 5.84982982473 17.2735282975 3.61861544398
1821 1 9.90625824129 18.2996403187 1.60741561516
1823 1 9.91763883663 15.7309674955 2.90616907987
1826 1 8.5048611628 16.4264022385 0.990260936076
1827 1 8.48510217453 17.6634054491 3.54028723637
2386 1 11.3211956284 16.3676547143 0.987366677551
2387 1 11.3449945926 17.6329848098 3.51192233603
2381 1 12.755579192 18.2573282118 1.59245878185
2946 1 14.1705741652 16.3433558818 1.00218495891
2947 1 14.153694349 17.6352295209 3.49768785366
3503 2 18.1891141984 15.7868292587 2.9591348844
2941 1 15.5954194424 18.259949122 1.60559584347
3501 1 18.5288542145 18.0639999752 1.57969465644
3506 1 16.9196867691 16.3200361912 0.988332405228
3507 1 16.9773541969 17.6499543202 3.55680383158
4063 1 22.446614642 16.0986328079 1.55098262183
4061 1 21.1379854656 18.277920978 1.69027629799
4066 1 20.2195863818 15.8948029935 2.20277572557
5187 2 26.023479212 15.7978145059 1.51153832786
4696 2 23.2373557393 19.2993240911 0.629169671809
4628 1 23.1997071072 18.2618725169 2.97884444223
4621 1 24.3958848638 17.3915414885 0.855690805628
5188 1 25.9597970649 18.0038285243 2.82694564328
5256 1 25.8144922239 19.3885708965 0.243127157956
4623 1 24.3804556425 16.2212899865 3.4334860639
5183 1 27.3415235867 16.1200815594 3.47113181039
5181 1 27.3074528965 17.5166188431 0.877650643065
5741 1 30.0161513421 17.4211504158 0.903842179396
5743 1 30.0766234608 16.1763237798 3.46023897555
5748 1 28.6661489761 18.0895359672 2.84217656396
5816 1 28.64646381 19.3928624349 0.264768837795
6301 1 32.9224837202 17.4026261114 0.910306269373
6303 1 32.8854984579 16.130097365 3.48108357029
6308 1 31.4823088294 18.0469200192 2.80722034403
6376 1 31.4680563839 19.3188712626 0.264667935448
6936 1 34.2320433943 19.3718205458 0.259447153581
6868 1 34.2364360707 18.0622082886 2.87312934415
6861 2 35.5843459359 17.5780322691 0.987817137657
7428 1 36.9367516487 18.0381975532 2.83098683746
7496 1 36.9750342087 19.3707555061 0.249592272459
6863 2 35.5771750617 16.1707153819 3.71860595175
7421 1 38.267788463 17.4175461737 0.925450880629
7423 1 38.3284671861 16.1778134555 3.47117864227
7981 1 41.060733848 17.5057778139 0.978852231639
7988 1 39.7494746132 18.1471500543 2.87636418503
8056 1 39.6911504313 19.3340592938 0.264935850163
7983 2 40.9629055389 16.2336736373 3.47784734317
147 1 44.5698471924 16.062495595 2.81493965697
8610 1 44.0381048294 17.7211646984 1.06432573542
8616 1 42.3995334596 19.3431721038 0.283727988232
8544 1 42.6378846228 17.8614496044 3.02216250122
213 2 0.789778211514 20.3486462271 2.12158973903
220 1 1.61700052861 22.3690266776 3.02121672415
216 1 3.04293648325 22.9130981842 0.892231723301
228 1 2.93043256583 20.1222630917 1.97210557666
776 1 1.23460902845 21.5308158753 0.202339627841
772 1 4.33992498062 21.012726055 0.232525725036
773 1 4.28923180276 22.329515367 2.75916213288
1332 1 7.2447690345 20.9283254631 0.278937548918
1333 1 7.23976843127 22.2323093765 2.86541088943
1336 1 5.84334848425 22.7966306904 0.964538494072
1339 1 5.78498719773 20.4969114806 2.11697095568
1892 1 9.94443801152 20.819287443 0.318527327856
1893 1 10.0017844641 22.0810707899 2.86211858691
1896 1 8.60951602897 22.787994478 0.954861863723
1899 1 8.50841323686 20.2202739818 2.27512113136
2459 1 11.3438092441 20.1524156556 2.21334856831
2456 1 11.3638255825 22.7039665341 0.913223766205
2452 1 12.7785366243 20.7916053061 0.291280711059
2453 2 12.7602793579 22.00352372 2.73178759093
3016 1 14.1745951599 22.6959529742 0.901453121246
3019 1 14.1816347764 20.1479497413 2.18675021385
3012 1 15.5969185997 20.8057946233 0.261757112214
3013 1 15.5512783664 22.067325315 2.78386217412
3573 1 18.3327387638 22.1837986529 2.75594186435
3576 1 17.0249147225 22.7248698288 0.833552817081
3579 1 17.0218360175 20.1686990752 2.14383914718
3572 1 18.3506697627 20.8104717809 0.160919390498
4697 1 22.4963264784 20.8032793372 2.11574598698
4139 1 19.6577848003 20.1848434975 2.05354224864
4691 1 22.6980011737 22.9792654547 1.41261259322
4136 2 20.6126584922 22.2279530856 2.509023294
4766 1 19.9833059023 22.8004464465 0.357237107254
4132 1 21.2368251877 20.6564672872 0.185035884808
4692 1 24.7522350591 20.0150898206 2.22752134119
5257 1 25.6455585901 22.143761939 1.49961684028
4693 1 24.3471154093 22.606608132 3.51798122416
5252 1 27.2100582662 20.0303544981 2.18637744869
5253 1 27.2026193715 22.5764695782 3.46155778408
5812 1 30.0682714266 19.9760387639 2.17977817739
5813 1 30.064934788 22.5238941659 3.46139641874
5817 1 28.6380401351 21.8872254809 1.56655052547
6372 1 32.8630608429 19.9738697897 2.18321539385
6373 1 32.8701884708 22.5262182777 3.45834933363
6377 1 31.4704365829 21.8950753682 1.5555430709
6937 1 34.2603011973 21.9027912848 1.54073977366
6932 1 35.6181823041 19.9819126284 2.19343607737
6933 1 35.6360562446 22.5444681402 3.47785093755
7497 1 37.0105091179 21.9163255646 1.55497718804
8052 1 41.1150384014 20.0912773505 2.10907937989
7492 1 38.3150552222 19.9679591646 2.18909849441
7493 1 38.3699712058 22.5389811566 3.53545309239
8053 1 41.0427078709 22.3794273909 3.54880557203
8057 1 39.7130383437 21.9055823188 1.58481175492
8548 2 43.5960868589 20.0827288186 1.99997626983
8617 1 42.5410932563 22.0756955982 1.44660563428
8604 1 44.8965674902 22.1493059067 2.4525670817
280 1 0.902131470621 23.8671210934 1.24995219534
211 1 1.05238453379 26.1594978311 2.22624708384
849 1 3.27063651491 26.8229903695 2.37828241397
777 1 2.85483352036 24.3951079322 3.08945032463
219 1 2.88868836964 25.4307062718 0.236605166641
288 1 0.130553013943 25.7713759242 0.0272942904726
771 2 4.59058554458 24.6973507971 1.50573422935
1331 1 7.18984075657 24.7148709522 1.70578377651
1409 1 5.91276560089 26.7085988858 2.3589245518
842 1 4.53793006691 27.2747514237 0.391046000037
1402 1 7.25722399215 27.2310919771 0.362325844483
1337 1 5.70140085439 24.0928748336 3.6665412675
1891 1 10.0268333057 24.6287648935 1.61166902227
1969 1 8.67626162085 26.5763291357 2.22506674961
1897 1 8.65198218808 24.015392615 3.52460844378
1962 1 10.0522001423 27.1611687898 0.300537583556
2529 1 11.3997498966 26.5145909656 2.23994741366
2457 1 11.3874548616 23.9436081141 3.53169112882
2451 1 12.75692755 24.5744874922 1.59678089962
3089 1 14.1250845083 26.485810439 2.23321592594
3017 1 14.112716789 23.9326610045 3.49724411235
2522 1 12.7873242386 27.1455265276 0.304237537084
3011 1 15.5360331217 24.5759610794 1.5851383448
3571 2 18.2988588712 24.6066925911 1.72157360807
3649 1 16.9107043212 26.5115441104 2.23606238169
3577 1 16.8648991365 23.9671421779 3.50183044624
3082 1 15.5258659459 27.1121344174 0.323181632964
3642 1 18.2256672532 27.1606320317 0.285913467087
4131 1 20.9077040444 24.6076062159 1.73585267913
4209 1 19.6692792192 26.6902584606 2.14266892598
4202 1 22.4005988702 26.6324475585 1.70597906028
4208 2 20.743709497 26.8448636112 0.187604565444
4134 2 20.9613630476 25.8102688211 3.688166401
4698 1 23.1173070318 24.7442721925 3.17184211407
5329 2 24.5573353794 26.2820172371 1.69546171992
5326 1 25.8463670896 25.4859064644 0.0802337956684
5258 1 25.7712745773 24.4901323522 2.87426416764
5251 1 27.3454344349 23.8104973307 0.96507064817
5811 1 30.0764382978 23.801259637 0.91466015454
5322 1 27.2255984448 26.3003470798 2.15974135206
5818 1 28.6846176009 24.4396326941 2.84488882787
5882 1 30.0716387331 26.3444316276 2.19379899094
5886 1 28.6795822754 25.707747826 0.270964117908
6371 1 32.87318524 23.818908379 0.904739460807
6378 1 31.4736097155 24.4426987209 2.82642014312
6442 1 32.8754916135 26.3630000931 2.17570679015
6446 1 31.4823527614 25.7231961995 0.265794284993
6938 1 34.2628108667 24.4558853816 2.82188247809
7006 1 34.2738955537 25.7436226444 0.246616049735
6931 1 35.6584832832 23.8391395892 0.90111376808
7002 1 35.6671424837 26.366098854 2.16658354326
7498 1 37.0319181066 24.4594061505 2.83506157187
7566 1 37.0610129778 25.7647499773 0.240251018144
8051 1 41.0412000285 23.8472581405 0.982205604371
7491 1 38.4128785117 23.8462217767 0.928679817846
7562 1 38.4571477542 26.3606192393 2.1724183422
8058 1 39.8046197322 24.3916079299 2.90030139151
8122 1 41.2126747787 26.2286110592 2.28498331102
8126 1 39.7718413638 25.7735936356 0.263496823536
8613 1 45.6355128721 24.4989014702 3.4416163289
8611 2 44.3362552443 23.9612729694 1.27653386299
8618 1 42.7891008623 23.9233728633 3.13321189034
8682 1 43.9531686528 26.1701814046 2.19769823265
8686 2 42.2217386497 25.9562475232 0.301254491901
282 1 1.81356783338 27.542805952 0.514217438839
286 2 1.22500117005 29.9544761427 1.48841800242
846 1 3.26486965813 29.2388262312 1.0242779065
283 1 1.21577739088 28.3984340877 3.3224587827
847 1 2.98819817996 30.5911774327 3.34259852399
287 1 0.29852037729 30.6861888332 3.51301087842
843 2 4.54643895808 28.8323068404 2.81649285593
1406 1 5.9796259942 29.1777754598 0.951984966784
1401 1 7.45864126487 31.0767637277 1.64171516121
1407 1 6.06226526087 30.4587432272 3.53583269407
841 1 4.72060262229 31.0976885205 1.68318581602
1403 2 7.57182872199 28.6935549282 2.80803809278
1961 2 10.0921024444 30.8581115927 1.51450485735
1963 1 10.0914213675 28.476004894 2.85493796797
1966 1 8.71813607369 29.1036390701 0.890350157986
1967 1 8.82388013109 30.4873708413 3.55985655145
2527 1 11.3908851225 30.3909689312 3.50126549747
2526 1 11.4515502488 29.0690323772 0.923351134804
2521 1 12.7800723289 31.0227694502 1.58559784976
2523 1 12.7642474328 28.4398090214 2.87679260777
3086 1 14.1592491744 29.0698088205 0.958455291552
3087 1 14.1334911796 30.3495569538 3.51450573138
3081 1 15.5601098297 30.965956172 1.62750538069
3083 1 15.5089814767 28.3968713707 2.8985730603
3643 1 18.3025778386 28.3945454098 2.89885292947
3646 1 16.8938357064 29.0262598871 1.01657168241
3647 1 16.930640617 30.2776707419 3.57116847581
3641 1 18.2828256297 30.9013570449 1.66429704778
4203 1 21.5198566539 28.4997502813 3.06521777519
4206 1 19.6917352524 29.0337715793 1.01106348423
4836 2 21.756614875 29.9705030889 1.02447008745
4207 2 19.6803881716 30.0626359453 3.64551319025
4768 1 23.1338091761 30.541974547 2.91837297659
4761 1 23.6527188489 28.8817828039 1.03661395156
5327 1 25.9852448806 28.1724532872 1.28199108571
4763 1 24.3166644252 28.0522703815 3.16886064607
5328 1 25.3795286913 30.3415757574 1.86801800942
5323 1 27.0839128525 28.917788546 3.42862224491
5321 1 27.4106456635 30.1117606142 0.84630146986
5881 1 30.1033298677 30.1448038694 0.894387128618
5883 1 30.0644913031 28.8798991608 3.45219482544
5887 1 28.6543431501 28.2104138522 1.57883787752
5888 1 28.701661281 30.7498357196 2.81516729545
6441 1 32.899451697 30.1851681497 0.868525365389
6443 1 32.8856026738 28.9114940196 3.43628641725
6447 1 31.4880094702 28.2595375995 1.53476112908
6448 1 31.5017284456 30.8076269991 2.78627188299
7007 1 34.2828551816 28.2798819152 1.5079048284
7008 1 34.293847267 30.8308519339 2.76589411501
7001 1 35.6772687509 30.2067379999 0.830832058394
7003 1 35.6704295454 28.9072465161 3.41781570694
7567 1 37.0630300365 28.2738381065 1.4889501963
7568 1 37.0615571003 30.8281282466 2.7444671252
7561 1 38.4457430989 30.1992126895 0.801352201543
7563 1 38.4108014331 28.877895731 3.43138556572
8121 1 41.3021935311 30.200707071 0.824299676522
8123 1 41.1644875093 28.8316228094 3.44399873664
8127 1 39.8045034396 28.3050173444 1.52844174108
8128 1 39.7799028103 30.7575338326 2.73204612484
289 1 45.3120811566 28.0359362476 1.45158607934
8681 1 44.0590781913 30.0795675217 1.08513729161
8687 1 42.54133679 28.1889779501 1.55111162615
8688 1 42.4955317377 30.7169843015 2.80766358131
8683 1 43.9563973575 28.7492939057 3.42254843735
281 1 1.18549464434 32.3161145133 2.150385376
353 1 1.82730348591 34.5630364125 2.90783243803
919 1 3.37354283183 32.9713495167 2.19007704056
918 1 1.65333787058 33.6663554173 0.282383695193
344 1 2.90373116876 31.5464909203 0.100962178318
912 1 4.47096866391 33.5919656815 0.229158425216
913 1 4.55100411413 34.9476555789 2.85138444307
1472 1 7.43203379183 33.6013476816 0.363644723759
1473 1 7.39978311244 34.8754875499 2.87082090742
1479 1 6.01264634854 33.0172186534 2.20312257439
2032 2 10.0884076688 33.7041054545 0.195260868191
2033 1 10.1680087104 34.9083910839 2.91059981964
2039 1 8.84266360538 32.9635587293 2.24340502026
2599 1 11.376047562 32.9271751359 2.17439919055
2592 1 12.8285174898 33.5813346449 0.308050991432
2593 1 12.7955418074 34.8214745483 2.76683616437
3159 1 14.2029048767 32.9341982143 2.21344822398
3152 1 15.6426442463 33.5431497388 0.328344172164
3153 1 15.7016840268 34.8162011892 2.80054701944
3712 1 18.3156962418 33.4050077703 0.377964302795
3719 1 16.9682580887 32.8432477229 2.29006397324
3713 1 18.335329446 34.7516005499 2.85597911734
4279 2 19.5203013913 32.9045696337 2.35068753601
4839 2 22.5334838074 32.6944736349 2.26400133836
4272 1 21.1228795871 32.8246979189 0.388782580668
4837 1 20.0114295716 34.9823540077 1.23592575185
4273 1 22.0661431102 34.8031193613 3.28780505608
4824 1 23.3377268857 31.7412479823 0.276311310331
4838 1 22.9998118142 34.6280090758 1.07950194911
4832 1 24.7362909443 32.7049078765 2.11698859274
5396 1 25.9411828037 32.0061909548 0.251042749697
5397 1 25.8900342592 34.6989800466 1.54981680114
4833 1 24.5331083195 35.3061640309 3.40140905524
5392 1 27.2232977403 32.5891929306 2.24444715667
5952 1 30.097918921 32.7144905312 2.17419159062
5956 1 28.6731823408 32.0441056305 0.332616308821
5957 1 28.6920555157 34.6384165158 1.59830675701
5953 1 30.1285796009 35.3218377993 3.42283941501
5393 1 27.3106264875 35.2901989043 3.44504364221
6512 1 32.9036253788 32.7475894624 2.13595700962
6513 1 32.9093628972 35.3237573031 3.38521144716
6516 1 31.5178361205 32.0930062703 0.269906600889
6517 1 31.501316354 34.6681012429 1.51078794028
7076 1 34.2723801271 32.1285669276 0.192131337955
7077 1 34.2694166843 34.6704536467 1.44932097447
7072 1 35.6802156918 32.7595152593 2.0989000753
7073 1 35.6732962103 35.3280433791 3.36822277601
7636 1 37.0838968433 32.1369060512 0.174052908123
7637 1 37.0804134015 34.6836249345 1.45600283445
7632 1 38.4486146605 32.7389374744 2.07391758367
8192 2 41.1203578688 32.5558293449 2.06670854202
8197 1 39.8350940774 34.673606761 1.50456698831
8196 1 39.907098209 32.1244670608 0.170720437053
8193 2 41.159892591 35.344420723 3.39698984022
7633 1 38.4408755097 35.3499319184 3.36424524642
8753 1 45.3801470717 34.2315484152 1.63772025596
8752 2 44.3731894425 32.0957810576 2.37829542558
8757 2 43.3608275943 34.7935917596 0.735710531565
8756 1 42.8497450578 32.2428299345 0.333302291073
358 1 45.6405436324 31.7515898038 0.25328483295
916 1 3.17593759257 35.4818990149 0.970275036106
356 1 0.276489616824 36.2114867701 3.28535034485
351 1 0.748537607683 38.5208443578 2.03424681769
917 1 2.81322548507 36.9340978769 2.98665301538
414 2 1.06768083852 36.3079847437 1.19340921218
989 1 3.12573201737 39.2627479174 2.18932635649
988 1 2.73416447449 38.0177237044 0.0151622080871
911 1 4.62628753303 37.3852235094 1.53850395806
1471 1 7.32193573709 37.4039878345 1.58104929904
1476 1 5.95060102041 35.4420346926 0.942935560891
1477 1 5.94487076077 36.7801482889 3.51140095988
2031 1 10.1475128338 37.4514678321 1.57290162112
2036 1 8.75082031624 35.5366823524 0.97308090209
2037 1 8.77910082019 36.8053710372 3.486827208
2596 1 11.4677625889 35.5211663175 0.908067727952
2597 1 11.5879251316 36.8204493548 3.48314665671
2591 1 12.839127606 37.4559734588 1.46801274434
3156 1 14.2914210607 35.5133771393 0.920641872087
3157 1 14.2216140393 36.7299944235 3.20208965242
3716 1 17.1018010537 35.4385707489 0.905633074787
3151 1 15.7949683592 37.4379311069 1.49771915712
3711 1 18.6832823444 37.0133805891 1.48307522068
3717 1 17.2203725322 36.9171295356 3.49755806815
4276 1 21.5778872792 36.7313656214 1.06920997374
4277 1 20.4399827372 36.5074227711 3.42888771132
4349 2 19.3684493221 38.5804063941 2.98278563502
4271 1 21.5771327306 39.0544851943 2.43540350883
4348 1 20.0493063583 38.599838387 0.278918489091
4902 1 23.0117408661 37.1417463953 2.85863095552
4831 1 24.4530480308 36.6099431599 0.916637460681
5398 1 25.958886022 37.1946039267 2.74920979236
5466 1 25.898895694 38.4252164138 0.196314381752
4907 1 24.5289884813 39.0342505509 2.17233568123
4906 1 22.9034338666 38.5640294314 0.308164190435
5391 1 27.3337798925 36.543469237 0.803327474703
5462 1 27.3352361948 39.1262417359 2.11999950037
5951 1 30.0484448423 36.5435925205 0.807128756047
5958 1 28.703865092 37.1964098484 2.73538313199
6022 1 30.0833805295 39.1325353991 2.12224918959
6026 1 28.6755735983 38.4710687826 0.173330396149
6511 1 32.8584591547 36.5812150417 0.816518928026
6518 1 31.4921726369 37.2218797941 2.7213520084
6582 1 32.8535061266 39.1594928831 2.13573678626
6586 1 31.4543061598 38.4848406203 0.20217600113
7146 1 34.2633321612 38.5126476852 0.222852307605
7078 1 34.2716861858 37.2463972647 2.73696148171
7071 1 35.6710188225 36.595051236 0.831510851766
7142 1 35.6438030118 39.1821131363 2.13663469664
7638 1 37.0491666069 37.2624200123 2.74835546177
7706 1 37.0713218064 38.5193997134 0.233070197364
7631 1 38.510351332 36.609418017 0.867344318372
7702 1 38.4302769719 39.1891676785 2.14981697381
8191 1 41.480043482 36.501715733 1.00281077338
8198 1 39.8513532916 37.2854747617 2.76089403249
8266 1 39.9038525042 38.5205260117 0.278314276938
8262 1 41.1790306975 39.2671267219 2.17747413647
8761 1 43.5297955936 35.3816511239 3.14021370733
8751 1 44.2764327491 36.8878862886 1.5155153012
8758 1 42.4474536497 37.5509145141 2.99768843564
8826 1 42.6202561979 38.548927511 0.312963831864
8829 1 44.047794616 39.2222774931 2.04207550055
423 1 1.74878270878 41.0051083542 2.92646919661
986 1 3.03812285365 41.764818056 0.985673223537
422 1 1.28909996131 40.1139256888 0.178246398576
987 1 3.06353597932 43.0779913039 3.47274386042
982 1 4.42435752104 39.8802835343 0.300869821803
983 1 4.48596912243 41.1910218467 2.84647381814
1542 1 7.26169031682 39.9516251542 0.298370503932
1543 1 7.30868636149 41.2191368208 2.7940206088
1546 1 5.83921643814 41.8383882343 0.921236098483
1549 1 5.89476719817 39.3114917751 2.25361187726
1547 1 5.95538702843 43.1229515388 3.42320223847
2102 1 10.0978403325 39.9729279573 0.28256062721