ITEM: TIMESTEP
0
ITEM: NUMBER OF ATOMS
9560
ITEM: BOX BOUNDS pp pp pp
0.0 88.6430375159
0.0 28.55
0.0 44.3215187579
ITEM: ATOMS id type x y z
1 1 0.275860075256 1.4275 4.50571456251
2 1 1.0114869426 1.4275 1.74711380996
3 1 0.0 0.0 0.0
4 1 0.0919533584186 1.4275 16.2757444401
5 1 0.827580225767 1.4275 13.5171436876
6 1 1.56320709312 1.4275 10.758542935
7 1 0.551720150512 0.0 9.01142912502
8 1 2.29883396047 1.4275 7.99994218242
9 1 1.28734701786 0.0 6.25282837246
10 1 3.03446082781 1.4275 5.24134142986
11 1 2.02297388521 0.0 3.49422761991
12 1 3.77008769516 1.4275 2.48274067731
13 1 2.75860075256 0.0 0.735626867349
14 1 0.64367350893 1.4275 25.2871735651
15 1 1.37930037628 1.4275 22.5285728126
16 1 0.367813433674 0.0 20.7814590026
17 1 2.11492724363 1.4275 19.76997206
18 1 1.10344030102 0.0 18.0228582501
19 1 2.85055411098 1.4275 17.0113713075
20 1 1.83906716837 0.0 15.2642574975
21 1 3.58618097833 1.4275 14.2527705549
22 1 2.57469403572 0.0 12.505656745
23 1 4.32180784567 1.4275 11.4941698024
24 1 3.31032090307 0.0 9.74705599237
25 1 5.05743471302 1.4275 8.73556904977
26 1 4.04594777042 0.0 6.98845523981
27 1 5.79306158037 1.4275 5.97696829721
28 1 4.78157463777 0.0 4.22985448726
29 1 6.52868844772 1.4275 3.21836754465
30 1 5.51720150512 0.0 1.4712537347
31 1 7.26431531507 1.4275 0.459766792093
32 1 0.459766792093 1.4275 37.0572034428
33 1 1.19539365944 1.4275 34.2986026903
34 1 0.183906716837 0.0 32.5514888802
35 1 1.93102052679 1.4275 31.5400019377
36 1 0.919533584186 0.0 29.7928881277
37 1 2.66664739414 1.4275 28.7814011851
38 1 1.65516045154 0.0 27.0342873751
39 1 3.40227426149 1.4275 26.0228004325
40 1 2.39078731889 0.0 24.2756866225
41 1 4.13790112884 1.4275 23.2641996799
42 1 3.12641418623 0.0 21.51708587
43 1 4.87352799619 1.4275 20.5055989274
44 1 3.86204105358 0.0 18.7584851174
45 1 5.60915486353 1.4275 17.7469981748
46 1 4.59766792093 0.0 15.9998843649
47 1 6.34478173088 1.4275 14.9883974223
48 1 5.33329478828 0.0 13.2412836123
49 1 7.08040859823 1.4275 12.2297966697
50 1 6.06892165563 0.0 10.4826828597
51 1 7.81603546558 1.4275 9.47119591712
52 1 6.80454852298 0.0 7.72408210716
53 1 8.55166233293 1.4275 6.71259516456
54 1 7.54017539033 0.0 4.9654813546
55 1 9.28728920028 1.4275 3.953994412
56 1 8.27580225767 0.0 2.20688060205
57 1 10.0229160676 1.4275 1.19539365944
58 1 1.74711380996 1.4275 43.3100318151
59 1 0.735626867349 0.0 41.5629180054
60 1 2.48274067731 1.4275 40.5514310625
61 1 1.4712537347 0.0 38.8043172528
62 1 3.21836754465 1.4275 37.79283031
63 1 2.20688060205 0.0 36.0457165003
64 1 3.953994412 1.4275 35.0342295574
65 1 2.9425074694 0.0 33.2871157477
66 1 4.68962127935 1.4275 32.2756288049
67 1 3.67813433674 0.0 30.5285149951
68 1 5.4252481467 1.4275 29.5170280523
69 1 4.41376120409 0.0 27.7699142424
70 1 6.16087501405 1.4275 26.7584272998
71 1 5.14938807144 0.0 25.0113134899
72 1 6.89650188139 1.4275 23.9998265473
73 1 5.88501493879 0.0 22.2527127373
74 1 7.63212874874 1.4275 21.2412257947
75 1 6.62064180614 0.0 19.4941119848
76 1 8.36775561609 1.4275 18.4826250422
77 1 7.35626867349 0.0 16.7355112322
78 1 9.10338248344 1.4275 15.7240242896
79 1 8.09189554084 0.0 13.9769104797
80 1 9.83900935079 1.4275 12.9654235371
81 1 8.82752240819 0.0 11.2183097271
82 1 10.5746362181 1.4275 10.2068227845
83 1 9.56314927553 0.0 8.45970897451
84 1 11.3102630855 1.4275 7.44822203191
85 1 10.2987761429 0.0 5.70110822195
86 1 12.0458899529 1.4275 4.68962127935
87 1 11.0344030102 0.0 2.9425074694
88 1 12.7815168202 1.4275 1.93102052679
89 1 11.7700298776 0.0 0.183906716837
90 1 4.50571456251 1.4275 44.0456586826
91 1 3.49422761991 0.0 42.2985448726
92 1 5.24134142986 1.4275 41.28705793
93 1 4.22985448726 0.0 39.53994412
94 1 5.97696829721 1.4275 38.5284571775
95 1 4.9654813546 0.0 36.7813433674
96 1 6.71259516456 1.4275 35.7698564249
97 1 5.70110822195 0.0 34.0227426149
98 1 7.44822203191 1.4275 33.0112556723
99 1 6.4367350893 0.0 31.2641418623
100 1 8.18384889926 1.4275 30.2526549198
101 1 7.17236195665 0.0 28.5055411098
102 1 8.9194757666 1.4275 27.4940541672
103 1 7.907988824 0.0 25.7469403572
104 1 9.65510263395 1.4275 24.7354534146
105 1 8.64361569135 0.0 22.9883396047
106 1 10.3907295013 1.4275 21.9768526621
107 1 9.3792425587 0.0 20.2297388521
108 1 11.1263563687 1.4275 19.2182519095
109 1 10.114869426 0.0 17.4711380996
110 1 11.861983236 1.4275 16.459651157
111 1 10.8504962934 0.0 14.712537347
112 1 12.5976101034 1.4275 13.7010504044
113 1 11.5861231608 0.0 11.9539365944
114 1 13.3332369707 1.4275 10.9424496518
115 1 12.3217500281 0.0 9.19533584186
116 1 14.0688638381 1.4275 8.18384889926
117 1 13.0573768955 0.0 6.4367350893
118 1 14.8044907054 1.4275 5.4252481467
119 1 13.7930037628 0.0 3.67813433674
120 1 15.5401175728 1.4275 2.66664739414
121 1 14.5286306302 0.0 0.919533584186
122 1 6.25282837246 0.0 43.03417174
123 1 7.99994218242 1.4275 42.0226847975
124 1 6.98845523981 0.0 40.2755709875
125 1 8.73556904977 1.4275 39.2640840449
126 1 7.72408210716 0.0 37.5169702349
127 1 9.47119591712 1.4275 36.5054832924
128 1 8.45970897451 0.0 34.7583694823
129 1 10.2068227845 1.4275 33.7468825398
130 1 9.19533584186 0.0 31.9997687298
131 1 10.9424496518 1.4275 30.9882817872
132 1 9.93096270921 0.0 29.2411679772
133 1 11.6780765192 1.4275 28.2296810345
134 1 10.6665895766 0.0 26.4825672246
135 1 12.4137033865 1.4275 25.471080282
136 1 11.4022164439 0.0 23.723966472
137 1 13.1493302539 1.4275 22.7124795294
138 1 12.1378433113 0.0 20.9653657195
139 1 13.8849571212 1.4275 19.9538787769
140 1 12.8734701786 0.0 18.2067649669
141 1 14.6205839886 1.4275 17.1952780243
142 1 13.609097046 0.0 15.4481642144
143 1 15.3562108559 1.4275 14.4366772717
144 1 14.3447239133 0.0 12.6895634618
145 1 16.0918377233 1.4275 11.6780765192
146 1 15.0803507807 0.0 9.93096270921
147 1 16.8274645906 1.4275 8.9194757666
148 1 15.815977648 0.0 7.17236195665
149 1 17.563091458 1.4275 6.16087501405
150 1 16.5516045154 0.0 4.41376120409
151 1 18.2987183253 1.4275 3.40227426149
152 1 17.2872313827 0.0 1.65516045154
153 1 19.0343451927 1.4275 0.64367350893
154 1 9.01142912502 0.0 43.7697986072
155 1 10.758542935 1.4275 42.7583116646
156 1 9.74705599237 0.0 41.0111978546
157 1 11.4941698024 1.4275 39.9997109121
158 1 10.4826828597 0.0 38.2525971021
159 1 12.2297966697 1.4275 37.2411101595
160 1 11.2183097271 0.0 35.4939963495
161 1 12.9654235371 1.4275 34.482509407
162 1 11.9539365944 0.0 32.735395597
163 1 13.7010504044 1.4275 31.7239086544
164 1 12.6895634618 0.0 29.9767948444
165 1 14.4366772717 1.4275 28.9653079019
166 1 13.4251903291 0.0 27.2181940919
167 1 15.1723041391 1.4275 26.2067071493
168 1 14.1608171965 0.0 24.4595933394
169 1 15.9079310064 1.4275 23.4481063968
170 1 14.8964440638 0.0 21.7009925868
171 1 16.6435578738 1.4275 20.6895056442
172 1 15.6320709312 0.0 18.9423918343
173 1 17.3791847411 1.4275 17.9309048917
174 1 16.3676977985 0.0 16.1837910817
175 1 18.1148116085 1.4275 15.1723041391
176 1 17.1033246659 0.0 13.4251903291
177 1 18.8504384758 1.4275 12.4137033865
178 1 17.8389515332 0.0 10.6665895766
179 1 19.5860653432 1.4275 9.65510263395
180 1 18.5745784006 0.0 7.907988824
181 1 20.3216922105 1.4275 6.89650188139
182 1 19.3102052679 0.0 5.14938807144
183 1 21.0573190779 1.4275 4.13790112884
184 1 20.0458321353 0.0 2.39078731889
185 1 21.7929459452 1.4275 1.37930037628
186 1 13.5171436876 1.4275 43.4939385321
187 1 12.505656745 0.0 41.7468247221
188 1 14.2527705549 1.4275 40.7353377796
189 1 13.2412836123 0.0 38.9882239695
190 1 14.9883974223 1.4275 37.976737027
191 1 13.9769104797 0.0 36.229623217
192 1 15.7240242896 1.4275 35.2181362744
193 1 14.712537347 0.0 33.4710224644
194 1 16.459651157 1.4275 32.4595355219
195 1 15.4481642144 0.0 30.7124217119
196 1 17.1952780243 1.4275 29.7009347693
197 1 16.1837910817 0.0 27.9538209593
198 1 17.9309048917 1.4275 26.9423340167
199 1 16.9194179491 0.0 25.1952202067
200 1 18.666531759 1.4275 24.1837332641
201 1 17.6550448164 0.0 22.4366194542
202 1 19.4021586264 1.4275 21.4251325116
203 1 18.3906716837 0.0 19.6780187016
204 1 20.1377854937 1.4275 18.666531759
205 1 19.1262985511 0.0 16.9194179491
206 1 20.8734123611 1.4275 15.9079310064
207 1 19.8619254184 0.0 14.1608171965
208 1 21.6090392284 1.4275 13.1493302539
209 1 20.5975522858 0.0 11.4022164439
210 1 22.3446660957 1.4275 10.3907295013
211 1 21.3331791531 0.0 8.64361569135
212 1 23.0802929631 1.4275 7.63212874874
213 1 22.0688060205 0.0 5.88501493879
214 1 23.8159198304 1.4275 4.87352799619
215 1 22.8044328878 0.0 3.12641418623
216 1 24.5515466978 1.4275 2.11492724363
217 1 23.5400597552 0.0 0.367813433674
218 1 16.2757444401 1.4275 44.2295653993
219 1 15.2642574975 0.0 42.4824515896
220 1 17.0113713075 1.4275 41.4709646467
221 1 15.9998843649 0.0 39.723850837
222 1 17.7469981748 1.4275 38.7123638942
223 1 16.7355112322 0.0 36.9652500844
224 1 18.4826250422 1.4275 35.9537631416
225 1 17.4711380996 0.0 34.2066493319
226 1 19.2182519095 1.4275 33.1951623891
227 1 18.2067649669 0.0 31.4480485793
228 1 19.9538787769 1.4275 30.4365616365
229 1 18.9423918343 0.0 28.6894478268
230 1 20.6895056442 1.4275 27.677960884
231 1 19.6780187016 0.0 25.9308470741
232 1 21.4251325116 1.4275 24.9193601315
233 1 20.413645569 0.0 23.1722463215
234 1 22.1607593789 1.4275 22.1607593789
235 1 21.1492724363 0.0 20.413645569
236 1 22.8963862463 1.4275 19.4021586264
237 1 21.8848993037 0.0 17.6550448164
238 1 23.6320131136 1.4275 16.6435578738
239 1 22.620526171 0.0 14.8964440638
240 1 24.367639981 1.4275 13.8849571212
241 1 23.3561530384 0.0 12.1378433113
242 1 25.1032668483 1.4275 11.1263563687
243 1 24.0917799057 0.0 9.3792425587
244 1 25.8388937157 1.4275 8.36775561609
245 1 24.8274067731 0.0 6.62064180614
246 1 26.574520583 1.4275 5.60915486353
247 1 25.5630336404 0.0 3.86204105358
248 1 27.3101474504 1.4275 2.85055411098
249 1 26.2986605077 0.0 1.10344030102
250 1 28.0457743177 1.4275 0.0919533584186
251 1 18.0228582501 0.0 43.2180784567
252 1 19.76997206 1.4275 42.2065915142
253 1 18.7584851174 0.0 40.4594777042
254 1 20.5055989274 1.4275 39.4479907616
255 1 19.4941119848 0.0 37.7008769516
256 1 21.2412257947 1.4275 36.6893900091
257 1 20.2297388521 0.0 34.9422761991
258 1 21.9768526621 1.4275 33.9307892565
259 1 20.9653657195 0.0 32.1836754465
260 1 22.7124795294 1.4275 31.172188504
261 1 21.7009925868 0.0 29.425074694
262 1 23.4481063968 1.4275 28.4135877514
263 1 22.4366194542 0.0 26.6664739414
264 1 24.1837332641 1.4275 25.6549869988
265 1 23.1722463215 0.0 23.9078731889
266 1 24.9193601315 1.4275 22.8963862463
267 1 23.9078731889 0.0 21.1492724363
268 1 25.6549869988 1.4275 20.1377854937
269 1 24.6435000562 0.0 18.3906716837
270 1 26.3906138662 1.4275 17.3791847411
271 1 25.3791269236 0.0 15.6320709312
272 1 27.1262407335 1.4275 14.6205839886
273 1 26.1147537909 0.0 12.8734701786
274 1 27.8618676009 1.4275 11.861983236
275 1 26.8503806583 0.0 10.114869426
276 1 28.5974944681 1.4275 9.10338248344
277 1 27.5860075256 0.0 7.35626867349
278 1 29.3331213356 1.4275 6.34478173088
279 1 28.321634393 0.0 4.59766792093
280 1 30.0687482031 1.4275 3.58618097833
281 1 29.0572612602 0.0 1.83906716837
282 1 30.8043750702 1.4275 0.827580225767
283 1 20.7814590026 0.0 43.9537053242
284 1 22.5285728126 1.4275 42.9422183817
285 1 21.51708587 0.0 41.1951045716
286 1 23.2641996799 1.4275 40.1836176291
287 1 22.2527127373 0.0 38.4365038191
288 1 23.9998265473 1.4275 37.4250168765
289 1 22.9883396047 0.0 35.6779030665
290 1 24.7354534146 1.4275 34.666416124
291 1 23.723966472 0.0 32.919302314
292 1 25.471080282 1.4275 31.9078153714
293 1 24.4595933394 0.0 30.1607015614
294 1 26.2067071493 1.4275 29.1492146189
295 1 25.1952202067 0.0 27.4021008088
296 1 26.9423340167 1.4275 26.3906138662
297 1 25.9308470741 0.0 24.6435000562
298 1 27.677960884 1.4275 23.6320131136
299 1 26.6664739414 0.0 21.8848993037
300 1 28.4135877514 1.4275 20.8734123611
301 1 27.4021008088 0.0 19.1262985511
302 1 29.1492146189 1.4275 18.1148116085
303 1 28.1377276761 0.0 16.3676977985
304 1 29.884841486 1.4275 15.3562108559
305 1 28.8733545435 0.0 13.609097046
306 1 30.6204683535 1.4275 12.5976101034
307 1 29.608981411 0.0 10.8504962934
308 1 31.3560952207 1.4275 9.83900935079
309 1 30.3446082781 0.0 8.09189554084
310 1 32.0917220881 1.4275 7.08040859823
311 1 31.0802351456 0.0 5.33329478828
312 1 32.8273489556 1.4275 4.32180784567
313 1 31.8158620128 0.0 2.57469403572
314 1 33.5629758228 1.4275 1.56320709312
315 1 25.2871735651 1.4275 43.6778452488
316 1 24.2756866225 0.0 41.9307314388
317 1 26.0228004325 1.4275 40.9192444963
318 1 25.0113134899 0.0 39.1721306863
319 1 26.7584272998 1.4275 38.1606437437
320 1 25.7469403572 0.0 36.4135299337
321 1 27.4940541672 1.4275 35.4020429912
322 1 26.4825672246 0.0 33.6549291812
323 1 28.2296810345 1.4275 32.6434422386
324 1 27.2181940919 0.0 30.8963284286
325 1 28.9653079019 1.4275 29.884841486
326 1 27.9538209593 0.0 28.1377276761
327 1 29.7009347693 1.4275 27.1262407335
328 1 28.6894478268 0.0 25.3791269236
329 1 30.4365616365 1.4275 24.367639981
330 1 29.425074694 0.0 22.620526171
331 1 31.172188504 1.4275 21.6090392284
332 1 30.1607015614 0.0 19.8619254184
333 1 31.9078153714 1.4275 18.8504384758
334 1 30.8963284286 0.0 17.1033246659
335 1 32.6434422386 1.4275 16.0918377233
336 1 31.6319552961 0.0 14.3447239133
337 1 33.3790691061 1.4275 13.3332369707
338 1 32.3675821635 0.0 11.5861231608
339 1 34.1146959732 1.4275 10.5746362181
340 1 33.1032090307 0.0 8.82752240819
341 1 34.8503228407 1.4275 7.81603546558
342 1 33.8388358982 0.0 6.06892165563
343 1 35.5859497082 1.4275 5.05743471302
344 1 34.5744627653 0.0 3.31032090307
345 1 36.3215765753 1.4275 2.29883396047
346 1 35.3100896328 0.0 0.551720150512
347 1 27.0342873751 0.0 42.6663583063
348 1 28.7814011851 1.4275 41.6548713637
349 1 27.7699142424 0.0 39.9077575537
350 1 29.5170280523 1.4275 38.8962706112
351 1 28.5055411098 0.0 37.1491568012
352 1 30.2526549198 1.4275 36.1376698586
353 1 29.2411679772 0.0 34.3905560486
354 1 30.9882817872 1.4275 33.3790691061
355 1 29.9767948444 0.0 31.6319552961
356 1 31.7239086544 1.4275 30.6204683535
357 1 30.7124217119 0.0 28.8733545435
358 1 32.4595355219 1.4275 27.8618676009
359 1 31.4480485793 0.0 26.1147537909
360 1 33.1951623891 1.4275 25.1032668483
361 1 32.1836754465 0.0 23.3561530384
362 1 33.9307892565 1.4275 22.3446660957
363 1 32.919302314 0.0 20.5975522858
364 1 34.666416124 1.4275 19.5860653432
365 1 33.6549291812 0.0 17.8389515332
366 1 35.4020429912 1.4275 16.8274645906
367 1 34.3905560486 0.0 15.0803507807
368 1 36.1376698586 1.4275 14.0688638381
369 1 35.1261829161 0.0 12.3217500281
370 1 36.8732967258 1.4275 11.3102630855
371 1 35.8618097833 0.0 9.56314927553
372 1 37.6089235933 1.4275 8.55166233293
373 1 36.5974366507 0.0 6.80454852298
374 1 38.3445504607 1.4275 5.79306158037
375 1 37.3330635179 0.0 4.04594777042
376 1 39.0801773279 1.4275 3.03446082781
377 1 38.0686903854 0.0 1.28734701786
378 1 39.8158041954 1.4275 0.275860075256
379 1 29.7928881277 0.0 43.4019851738
380 1 31.5400019377 1.4275 42.3904982309
381 1 30.5285149951 0.0 40.6433844212
382 1 32.2756288049 1.4275 39.6318974784
383 1 31.2641418623 0.0 37.8847836686
384 1 33.0112556723 1.4275 36.8732967258
385 1 31.9997687298 0.0 35.1261829161
386 1 33.7468825398 1.4275 34.1146959732
387 1 32.735395597 0.0 32.3675821635
388 1 34.482509407 1.4275 31.3560952207
389 1 33.4710224644 0.0 29.608981411
390 1 35.2181362744 1.4275 28.5974944681
391 1 34.2066493319 0.0 26.8503806583
392 1 35.9537631416 1.4275 25.8388937157
393 1 34.9422761991 0.0 24.0917799057
394 1 36.6893900091 1.4275 23.0802929631
395 1 35.6779030665 0.0 21.3331791531
396 1 37.4250168765 1.4275 20.3216922105
397 1 36.4135299337 0.0 18.5745784006
398 1 38.1606437437 1.4275 17.563091458
399 1 37.1491568012 0.0 15.815977648
400 1 38.8962706112 1.4275 14.8044907054
401 1 37.8847836686 0.0 13.0573768955
402 1 39.6318974784 1.4275 12.0458899529
403 1 38.6204105358 0.0 10.2987761429
404 1 40.3675243458 1.4275 9.28728920028
405 1 39.3560374033 0.0 7.54017539033
406 1 41.1031512133 1.4275 6.52868844772
407 1 40.0916642705 0.0 4.78157463777
408 1 41.8387780805 1.4275 3.77008769516
409 1 40.8272911379 0.0 2.02297388521
410 1 42.5744049479 1.4275 1.0114869426
411 1 32.5514888802 0.0 44.1376120409
412 1 34.2986026903 1.4275 43.1261250984
413 1 33.2871157477 0.0 41.3790112884
414 1 35.0342295574 1.4275 40.3675243458
415 1 34.0227426149 0.0 38.6204105358
416 1 35.7698564249 1.4275 37.6089235933
417 1 34.7583694823 0.0 35.8618097833
418 1 36.5054832924 1.4275 34.8503228407
419 1 35.4939963495 0.0 33.1032090307
420 1 37.2411101595 1.4275 32.0917220881
421 1 36.229623217 0.0 30.3446082781
422 1 37.976737027 1.4275 29.3331213356
423 1 36.9652500844 0.0 27.5860075256
424 1 38.7123638942 1.4275 26.574520583
425 1 37.7008769516 0.0 24.8274067731
426 1 39.4479907616 1.4275 23.8159198304
427 1 38.4365038191 0.0 22.0688060205
428 1 40.1836176291 1.4275 21.0573190779
429 1 39.1721306863 0.0 19.3102052679
430 1 40.9192444963 1.4275 18.2987183253
431 1 39.9077575537 0.0 16.5516045154
432 1 41.6548713637 1.4275 15.5401175728
433 1 40.6433844212 0.0 13.7930037628
434 1 42.3904982309 1.4275 12.7815168202
435 1 41.3790112884 0.0 11.0344030102
436 1 43.1261250984 1.4275 10.0229160676
437 1 42.1146381558 0.0 8.27580225767
438 1 43.8617519658 1.4275 7.26431531507
439 1 42.850265023 0.0 5.51720150512
440 1 43.5858918905 0.0 2.75860075256
441 1 37.0572034428 1.4275 43.8617519658
442 1 36.0457165003 0.0 42.1146381558
443 1 37.79283031 1.4275 41.1031512133
444 1 36.7813433674 0.0 39.3560374033
445 1 38.5284571775 1.4275 38.3445504607
446 1 37.5169702349 0.0 36.5974366507
447 1 39.2640840449 1.4275 35.5859497082
448 1 38.2525971021 0.0 33.8388358982
449 1 39.9997109121 1.4275 32.8273489556
450 1 38.9882239695 0.0 31.0802351456
451 1 40.7353377796 1.4275 30.0687482031
452 1 39.723850837 0.0 28.321634393
453 1 41.4709646467 1.4275 27.3101474504
454 1 40.4594777042 0.0 25.5630336404
455 1 42.2065915142 1.4275 24.5515466978
456 1 41.1951045716 0.0 22.8044328878
457 1 42.9422183817 1.4275 21.7929459452
458 1 41.9307314388 0.0 20.0458321353
459 1 43.6778452488 1.4275 19.0343451927
460 1 42.6663583063 0.0 17.2872313827
461 1 43.4019851738 0.0 14.5286306302
462 1 38.8043172528 0.0 42.850265023
463 1 40.5514310625 1.4275 41.8387780805
464 1 39.53994412 0.0 40.0916642705
465 1 41.28705793 1.4275 39.0801773279
466 1 40.2755709875 0.0 37.3330635179
467 1 42.0226847975 1.4275 36.3215765753
468 1 41.0111978546 0.0 34.5744627653
469 1 42.7583116646 1.4275 33.5629758228
470 1 41.7468247221 0.0 31.8158620128
471 1 43.4939385321 1.4275 30.8043750702
472 1 42.4824515896 0.0 29.0572612602
473 1 43.2180784567 0.0 26.2986605077
474 1 41.5629180054 0.0 43.5858918905
475 1 43.3100318151 1.4275 42.5744049479
476 1 42.2985448726 0.0 40.8272911379
477 1 43.03417174 0.0 38.0686903854
478 1 43.7697986072 0.0 35.3100896328
479 1 0.275860075256 4.2825 4.50571456251
480 1 1.0114869426 4.2825 1.74711380996
481 1 0.0 2.855 0.0
482 1 0.0919533584186 4.2825 16.2757444401
483 1 0.827580225767 4.2825 13.5171436876
484 1 1.56320709312 4.2825 10.758542935
485 1 0.551720150512 2.855 9.01142912502
486 1 2.29883396047 4.2825 7.99994218242
487 1 1.28734701786 2.855 6.25282837246
488 1 3.03446082781 4.2825 5.24134142986
489 1 2.02297388521 2.855 3.49422761991
490 1 3.77008769516 4.2825 2.48274067731
491 1 2.75860075256 2.855 0.735626867349
492 1 0.64367350893 4.2825 25.2871735651
493 1 1.37930037628 4.2825 22.5285728126
494 1 0.367813433674 2.855 20.7814590026
495 1 2.11492724363 4.2825 19.76997206
496 1 1.10344030102 2.855 18.0228582501
497 1 2.85055411098 4.2825 17.0113713075
498 1 1.83906716837 2.855 15.2642574975
499 1 3.58618097833 4.2825 14.2527705549
500 1 2.57469403572 2.855 12.505656745
501 1 4.32180784567 4.2825 11.4941698024
502 1 3.31032090307 2.855 9.74705599237
503 1 5.05743471302 4.2825 8.73556904977
504 1 4.04594777042 2.855 6.98845523981
505 1 5.79306158037 4.2825 5.97696829721
506 1 4.78157463777 2.855 4.22985448726
507 1 6.52868844772 4.2825 3.21836754465
508 1 5.51720150512 2.855 1.4712537347
509 1 7.26431531507 4.2825 0.459766792093
510 1 0.459766792093 4.2825 37.0572034428
511 1 1.19539365944 4.2825 34.2986026903
512 1 0.183906716837 2.855 32.5514888802
513 1 1.93102052679 4.2825 31.5400019377
514 1 0.919533584186 2.855 29.7928881277
515 1 2.66664739414 4.2825 28.7814011851
516 1 1.65516045154 2.855 27.0342873751
517 1 3.40227426149 4.2825 26.0228004325
518 1 2.39078731889 2.855 24.2756866225
519 1 4.13790112884 4.2825 23.2641996799
520 1 3.12641418623 2.855 21.51708587
521 1 4.87352799619 4.2825 20.5055989274
522 1 3.86204105358 2.855 18.7584851174
523 1 5.60915486353 4.2825 17.7469981748
524 1 4.59766792093 2.855 15.9998843649
525 1 6.34478173088 4.2825 14.9883974223
526 1 5.33329478828 2.855 13.2412836123
527 1 7.08040859823 4.2825 12.2297966697
528 1 6.06892165563 2.855 10.4826828597
529 1 7.81603546558 4.2825 9.47119591712
530 1 6.80454852298 2.855 7.72408210716
531 1 8.55166233293 4.2825 6.71259516456
532 1 7.54017539033 2.855 4.9654813546
533 1 9.28728920028 4.2825 3.953994412
534 1 8.27580225767 2.855 2.20688060205
535 1 10.0229160676 4.2825 1.19539365944
536 1 1.74711380996 4.2825 43.3100318151
537 1 0.735626867349 2.855 41.5629180054
538 1 2.48274067731 4.2825 40.5514310625
539 1 1.4712537347 2.855 38.8043172528
540 1 3.21836754465 4.2825 37.79283031
541 1 2.20688060205 2.855 36.0457165003
542 1 3.953994412 4.2825 35.0342295574
543 1 2.9425074694 2.855 33.2871157477
544 1 4.68962127935 4.2825 32.2756288049
545 1 3.67813433674 2.855 30.5285149951
546 1 5.4252481467 4.2825 29.5170280523
547 1 4.41376120409 2.855 27.7699142424
548 1 6.16087501405 4.2825 26.7584272998
549 1 5.14938807144 2.855 25.0113134899
550 1 6.89650188139 4.2825 23.9998265473
551 1 5.88501493879 2.855 22.2527127373
552 1 7.63212874874 4.2825 21.2412257947
553 1 6.62064180614 2.855 19.4941119848
554 1 8.36775561609 4.2825 18.4826250422
555 1 7.35626867349 2.855 16.7355112322
556 1 9.10338248344 4.2825 15.7240242896
557 1 8.09189554084 2.855 13.9769104797
558 1 9.83900935079 4.2825 12.9654235371
559 1 8.82752240819 2.855 11.2183097271
560 1 10.5746362181 4.2825 10.2068227845
561 1 9.56314927553 2.855 8.45970897451
562 1 11.3102630855 4.2825 7.44822203191
563 1 10.2987761429 2.855 5.70110822195
564 1 12.0458899529 4.2825 4.68962127935
565 1 11.0344030102 2.855 2.9425074694
566 1 12.7815168202 4.2825 1.93102052679
567 1 11.7700298776 2.855 0.183906716837
568 1 4.50571456251 4.2825 44.0456586826
569 1 3.49422761991 2.855 42.2985448726
570 1 5.24134142986 4.2825 41.28705793
571 1 4.22985448726 2.855 39.53994412
572 1 5.97696829721 4.2825 38.5284571775
573 1 4.9654813546 2.855 36.7813433674
574 1 6.71259516456 4.2825 35.7698564249
575 1 5.70110822195 2.855 34.0227426149
576 1 7.44822203191 4.2825 33.0112556723
577 1 6.4367350893 2.855 31.2641418623
578 1 8.18384889926 4.2825 30.2526549198
579 1 7.17236195665 2.855 28.5055411098
580 1 8.9194757666 4.2825 27.4940541672
581 1 7.907988824 2.855 25.7469403572
582 1 9.65510263395 4.2825 24.7354534146
583 1 8.64361569135 2.855 22.9883396047
584 1 10.3907295013 4.2825 21.9768526621
585 1 9.3792425587 2.855 20.2297388521
586 1 11.1263563687 4.2825 19.2182519095
587 1 10.114869426 2.855 17.4711380996
588 1 11.861983236 4.2825 16.459651157
589 1 10.8504962934 2.855 14.712537347
590 1 12.5976101034 4.2825 13.7010504044
591 1 11.5861231608 2.855 11.9539365944
592 1 13.3332369707 4.2825 10.9424496518
593 1 12.3217500281 2.855 9.19533584186
594 1 14.0688638381 4.2825 8.18384889926
595 1 13.0573768955 2.855 6.4367350893
596 1 14.8044907054 4.2825 5.4252481467
597 1 13.7930037628 2.855 3.67813433674
598 1 15.5401175728 4.2825 2.66664739414
599 1 14.5286306302 2.855 0.919533584186
600 1 6.25282837246 2.855 43.03417174
601 1 7.99994218242 4.2825 42.0226847975
602 1 6.98845523981 2.855 40.2755709875
603 1 8.73556904977 4.2825 39.2640840449
604 1 7.72408210716 2.855 37.5169702349
605 1 9.47119591712 4.2825 36.5054832924
606 1 8.45970897451 2.855 34.7583694823
607 1 10.2068227845 4.2825 33.7468825398
608 1 9.19533584186 2.855 31.9997687298
609 1 10.9424496518 4.2825 30.9882817872
610 1 9.93096270921 2.855 29.2411679772
611 1 11.6780765192 4.2825 28.2296810345
612 1 10.6665895766 2.855 26.4825672246
613 1 12.4137033865 4.2825 25.471080282
614 1 11.4022164439 2.855 23.723966472
615 1 13.1493302539 4.2825 22.7124795294
616 1 12.1378433113 2.855 20.9653657195
617 1 13.8849571212 4.2825 19.9538787769
618 1 12.8734701786 2.855 18.2067649669
619 1 14.6205839886 4.2825 17.1952780243
620 1 13.609097046 2.855 15.4481642144
621 1 15.3562108559 4.2825 14.4366772717
622 1 14.3447239133 2.855 12.6895634618
623 1 16.0918377233 4.2825 11.6780765192
624 1 15.0803507807 2.855 9.93096270921
625 1 16.8274645906 4.2825 8.9194757666
626 1 15.815977648 2.855 7.17236195665
627 1 17.563091458 4.2825 6.16087501405
628 1 16.5516045154 2.855 4.41376120409
629 1 18.2987183253 4.2825 3.40227426149
630 1 17.2872313827 2.855 1.65516045154
631 1 19.0343451927 4.2825 0.64367350893
632 1 9.01142912502 2.855 43.7697986072
633 1 10.758542935 4.2825 42.7583116646
634 1 9.74705599237 2.855 41.0111978546
635 1 11.4941698024 4.2825 39.9997109121
636 1 10.4826828597 2.855 38.2525971021
637 1 12.2297966697 4.2825 37.2411101595
638 1 11.2183097271 2.855 35.4939963495
639 1 12.9654235371 4.2825 34.482509407
640 1 11.9539365944 2.855 32.735395597
641 1 13.7010504044 4.2825 31.7239086544
642 1 12.6895634618 2.855 29.9767948444
643 1 14.4366772717 4.2825 28.9653079019
644 1 13.4251903291 2.855 27.2181940919
645 1 15.1723041391 4.2825 26.2067071493
646 1 14.1608171965 2.855 24.4595933394
647 1 15.9079310064 4.2825 23.4481063968
648 1 14.8964440638 2.855 21.7009925868
649 1 16.6435578738 4.2825 20.6895056442
650 1 15.6320709312 2.855 18.9423918343
651 1 17.3791847411 4.2825 17.9309048917
652 1 16.3676977985 2.855 16.1837910817
653 1 18.1148116085 4.2825 15.1723041391
654 1 17.1033246659 2.855 13.4251903291
655 1 18.8504384758 4.2825 12.4137033865
656 1 17.8389515332 2.855 10.6665895766
657 1 19.5860653432 4.2825 9.65510263395
658 1 18.5745784006 2.855 7.907988824
659 1 20.3216922105 4.2825 6.89650188139
660 1 19.3102052679 2.855 5.14938807144
661 1 21.0573190779 4.2825 4.13790112884
662 1 20.0458321353 2.855 2.39078731889
663 1 21.7929459452 4.2825 1.37930037628
664 1 13.5171436876 4.2825 43.4939385321
665 1 12.505656745 2.855 41.7468247221
666 1 14.2527705549 4.2825 40.7353377796
667 1 13.2412836123 2.855 38.9882239695
668 1 14.9883974223 4.2825 37.976737027
669 1 13.9769104797 2.855 36.229623217
670 1 15.7240242896 4.2825 35.2181362744
671 1 14.712537347 2.855 33.4710224644
672 1 16.459651157 4.2825 32.4595355219
673 1 15.4481642144 2.855 30.7124217119
674 1 17.1952780243 4.2825 29.7009347693
675 1 16.1837910817 2.855 27.9538209593
676 1 17.9309048917 4.2825 26.9423340167
677 1 16.9194179491 2.855 25.1952202067
678 1 18.666531759 4.2825 24.1837332641
679 1 17.6550448164 2.855 22.4366194542
680 1 19.4021586264 4.2825 21.4251325116
681 1 18.3906716837 2.855 19.6780187016
682 1 20.1377854937 4.2825 18.666531759
683 1 19.1262985511 2.855 16.9194179491
684 1 20.8734123611 4.2825 15.9079310064
685 1 19.8619254184 2.855 14.1608171965
686 1 21.6090392284 4.2825 13.1493302539
687 1 20.5975522858 2.855 11.4022164439
688 1 22.3446660957 4.2825 10.3907295013
689 1 21.3331791531 2.855 8.64361569135
690 1 23.0802929631 4.2825 7.63212874874
691 1 22.0688060205 2.855 5.88501493879
692 1 23.8159198304 4.2825 4.87352799619
693 1 22.8044328878 2.855 3.12641418623
694 1 24.5515466978 4.2825 2.11492724363
695 1 23.5400597552 2.855 0.367813433674
696 1 16.2757444401 4.2825 44.2295653993
697 1 15.2642574975 2.855 42.4824515896
698 1 17.0113713075 4.2825 41.4709646467
699 1 15.9998843649 2.855 39.723850837
700 1 17.7469981748 4.2825 38.7123638942
701 1 16.7355112322 2.855 36.9652500844
702 1 18.4826250422 4.2825 35.9537631416
703 1 17.4711380996 2.855 34.2066493319
704 1 19.2182519095 4.2825 33.1951623891
705 1 18.2067649669 2.855 31.4480485793
706 1 19.9538787769 4.2825 30.4365616365
707 1 18.9423918343 2.855 28.6894478268
708 1 20.6895056442 4.2825 27.677960884
709 1 19.6780187016 2.855 25.9308470741
710 1 21.4251325116 4.2825 24.9193601315
711 1 20.413645569 2.855 23.1722463215
712 1 22.1607593789 4.2825 22.1607593789
713 1 21.1492724363 2.855 20.413645569
714 1 22.8963862463 4.2825 19.4021586264
715 1 21.8848993037 2.855 17.6550448164
716 1 23.6320131136 4.2825 16.6435578738
717 1 22.620526171 2.855 14.8964440638
718 1 24.367639981 4.2825 13.8849571212
719 1 23.3561530384 2.855 12.1378433113
720 1 25.1032668483 4.2825 11.1263563687
721 1 24.0917799057 2.855 9.3792425587
722 1 25.8388937157 4.2825 8.36775561609
723 1 24.8274067731 2.855 6.62064180614
724 1 26.574520583 4.2825 5.60915486353
725 1 25.5630336404 2.855 3.86204105358
726 1 27.3101474504 4.2825 2.85055411098
727 1 26.2986605077 2.855 1.10344030102
728 1 28.0457743177 4.2825 0.0919533584186
729 1 18.0228582501 2.855 43.2180784567
730 1 19.76997206 4.2825 42.2065915142
731 1 18.7584851174 2.855 40.4594777042
732 1 20.5055989274 4.2825 39.4479907616
733 1 19.4941119848 2.855 37.7008769516
734 1 21.2412257947 4.2825 36.6893900091
735 1 20.2297388521 2.855 34.9422761991
736 1 21.9768526621 4.2825 33.9307892565
737 1 20.9653657195 2.855 32.1836754465
738 1 22.7124795294 4.2825 31.172188504
739 1 21.7009925868 2.855 29.425074694
740 1 23.4481063968 4.2825 28.4135877514
741 1 22.4366194542 2.855 26.6664739414
742 1 24.1837332641 4.2825 25.6549869988
743 1 23.1722463215 2.855 23.9078731889
744 1 24.9193601315 4.2825 22.8963862463
745 1 23.9078731889 2.855 21.1492724363
746 1 25.6549869988 4.2825 20.1377854937
747 1 24.6435000562 2.855 18.3906716837
748 1 26.3906138662 4.2825 17.3791847411
749 1 25.3791269236 2.855 15.6320709312
750 1 27.1262407335 4.2825 14.6205839886
751 1 26.1147537909 2.855 12.8734701786
752 1 27.8618676009 4.2825 11.861983236
753 1 26.8503806583 2.855 10.114869426
754 1 28.5974944681 4.2825 9.10338248344
755 1 27.5860075256 2.855 7.35626867349
756 1 29.3331213356 4.2825 6.34478173088