ITEM: TIMESTEP
0
ITEM: NUMBER OF ATOMS
9600
ITEM: BOX BOUNDS pp pp pp
0.0 51.0717926061
0.0 51.0717926061
0.0 42.825
ITEM: ATOMS id type x y z
1 1 1.91519222273 5.74557666819 1.4275
2 1 0.638397407576 1.91519222273 1.4275
3 1 1.27679481515 3.83038444546 0.0
4 1 3.19198703788 3.19198703788 1.4275
5 1 3.83038444546 5.10717926061 0.0
6 1 5.74557666819 4.46878185303 1.4275
7 1 0.0 0.0 0.0
8 1 2.5535896303 1.27679481515 0.0
9 1 4.46878185303 0.638397407576 1.4275
10 1 5.10717926061 2.5535896303 0.0
11 1 1.91519222273 5.74557666819 4.2825
12 1 0.638397407576 1.91519222273 4.2825
13 1 1.27679481515 3.83038444546 2.855
14 1 3.19198703788 3.19198703788 4.2825
15 1 3.83038444546 5.10717926061 2.855
16 1 5.74557666819 4.46878185303 4.2825
17 1 0.0 0.0 2.855
18 1 2.5535896303 1.27679481515 2.855
19 1 4.46878185303 0.638397407576 4.2825
20 1 5.10717926061 2.5535896303 2.855
21 1 1.91519222273 5.74557666819 7.1375
22 1 0.638397407576 1.91519222273 7.1375
23 1 1.27679481515 3.83038444546 5.71
24 1 3.19198703788 3.19198703788 7.1375
25 1 3.83038444546 5.10717926061 5.71
26 1 5.74557666819 4.46878185303 7.1375
27 1 0.0 0.0 5.71
28 1 2.5535896303 1.27679481515 5.71
29 1 4.46878185303 0.638397407576 7.1375
30 1 5.10717926061 2.5535896303 5.71
31 1 1.91519222273 5.74557666819 9.9925
32 1 0.638397407576 1.91519222273 9.9925
33 1 1.27679481515 3.83038444546 8.565
34 1 3.19198703788 3.19198703788 9.9925
35 1 3.83038444546 5.10717926061 8.565
36 1 5.74557666819 4.46878185303 9.9925
37 1 0.0 0.0 8.565
38 1 2.5535896303 1.27679481515 8.565
39 1 4.46878185303 0.638397407576 9.9925
40 1 5.10717926061 2.5535896303 8.565
41 1 1.91519222273 5.74557666819 12.8475
42 1 0.638397407576 1.91519222273 12.8475
43 1 1.27679481515 3.83038444546 11.42
44 1 3.19198703788 3.19198703788 12.8475
45 1 3.83038444546 5.10717926061 11.42
46 1 5.74557666819 4.46878185303 12.8475
47 1 0.0 0.0 11.42
48 1 2.5535896303 1.27679481515 11.42
49 1 4.46878185303 0.638397407576 12.8475
50 1 5.10717926061 2.5535896303 11.42
51 1 1.91519222273 5.74557666819 15.7025
52 1 0.638397407576 1.91519222273 15.7025
53 1 1.27679481515 3.83038444546 14.275
54 1 3.19198703788 3.19198703788 15.7025
55 1 3.83038444546 5.10717926061 14.275
56 1 5.74557666819 4.46878185303 15.7025
57 1 0.0 0.0 14.275
58 1 2.5535896303 1.27679481515 14.275
59 1 4.46878185303 0.638397407576 15.7025
60 1 5.10717926061 2.5535896303 14.275
61 1 1.91519222273 5.74557666819 18.5575
62 1 0.638397407576 1.91519222273 18.5575
63 1 1.27679481515 3.83038444546 17.13
64 1 3.19198703788 3.19198703788 18.5575
65 1 3.83038444546 5.10717926061 17.13
66 1 5.74557666819 4.46878185303 18.5575
67 1 0.0 0.0 17.13
68 1 2.5535896303 1.27679481515 17.13
69 1 4.46878185303 0.638397407576 18.5575
70 1 5.10717926061 2.5535896303 17.13
71 1 1.91519222273 5.74557666819 21.4125
72 1 0.638397407576 1.91519222273 21.4125
73 1 1.27679481515 3.83038444546 19.985
74 1 3.19198703788 3.19198703788 21.4125
75 1 3.83038444546 5.10717926061 19.985
76 1 5.74557666819 4.46878185303 21.4125
77 1 0.0 0.0 19.985
78 1 2.5535896303 1.27679481515 19.985
79 1 4.46878185303 0.638397407576 21.4125
80 1 5.10717926061 2.5535896303 19.985
81 1 1.91519222273 5.74557666819 24.2675
82 1 0.638397407576 1.91519222273 24.2675
83 1 1.27679481515 3.83038444546 22.84
84 1 3.19198703788 3.19198703788 24.2675
85 1 3.83038444546 5.10717926061 22.84
86 1 5.74557666819 4.46878185303 24.2675
87 1 0.0 0.0 22.84
88 1 2.5535896303 1.27679481515 22.84
89 1 4.46878185303 0.638397407576 24.2675
90 1 5.10717926061 2.5535896303 22.84
91 1 1.91519222273 5.74557666819 27.1225
92 1 0.638397407576 1.91519222273 27.1225
93 1 1.27679481515 3.83038444546 25.695
94 1 3.19198703788 3.19198703788 27.1225
95 1 3.83038444546 5.10717926061 25.695
96 1 5.74557666819 4.46878185303 27.1225
97 1 0.0 0.0 25.695
98 1 2.5535896303 1.27679481515 25.695
99 1 4.46878185303 0.638397407576 27.1225
100 1 5.10717926061 2.5535896303 25.695
101 1 1.91519222273 5.74557666819 29.9775
102 1 0.638397407576 1.91519222273 29.9775
103 1 1.27679481515 3.83038444546 28.55
104 1 3.19198703788 3.19198703788 29.9775
105 1 3.83038444546 5.10717926061 28.55
106 1 5.74557666819 4.46878185303 29.9775
107 1 0.0 0.0 28.55
108 1 2.5535896303 1.27679481515 28.55
109 1 4.46878185303 0.638397407576 29.9775
110 1 5.10717926061 2.5535896303 28.55
111 1 1.91519222273 5.74557666819 32.8325
112 1 0.638397407576 1.91519222273 32.8325
113 1 1.27679481515 3.83038444546 31.405
114 1 3.19198703788 3.19198703788 32.8325
115 1 3.83038444546 5.10717926061 31.405
116 1 5.74557666819 4.46878185303 32.8325
117 1 0.0 0.0 31.405
118 1 2.5535896303 1.27679481515 31.405
119 1 4.46878185303 0.638397407576 32.8325
120 1 5.10717926061 2.5535896303 31.405
121 1 1.91519222273 5.74557666819 35.6875
122 1 0.638397407576 1.91519222273 35.6875
123 1 1.27679481515 3.83038444546 34.26
124 1 3.19198703788 3.19198703788 35.6875
125 1 3.83038444546 5.10717926061 34.26
126 1 5.74557666819 4.46878185303 35.6875
127 1 0.0 0.0 34.26
128 1 2.5535896303 1.27679481515 34.26
129 1 4.46878185303 0.638397407576 35.6875
130 1 5.10717926061 2.5535896303 34.26
131 1 1.91519222273 5.74557666819 38.5425
132 1 0.638397407576 1.91519222273 38.5425
133 1 1.27679481515 3.83038444546 37.115
134 1 3.19198703788 3.19198703788 38.5425
135 1 3.83038444546 5.10717926061 37.115
136 1 5.74557666819 4.46878185303 38.5425
137 1 0.0 0.0 37.115
138 1 2.5535896303 1.27679481515 37.115
139 1 4.46878185303 0.638397407576 38.5425
140 1 5.10717926061 2.5535896303 37.115
141 1 1.91519222273 5.74557666819 41.3975
142 1 0.638397407576 1.91519222273 41.3975
143 1 1.27679481515 3.83038444546 39.97
144 1 3.19198703788 3.19198703788 41.3975
145 1 3.83038444546 5.10717926061 39.97
146 1 5.74557666819 4.46878185303 41.3975
147 1 0.0 0.0 39.97
148 1 2.5535896303 1.27679481515 39.97
149 1 4.46878185303 0.638397407576 41.3975
150 1 5.10717926061 2.5535896303 39.97
151 1 1.91519222273 12.1295507439 1.4275
152 1 0.638397407576 8.29916629849 1.4275
153 1 1.27679481515 10.2143585212 0.0
154 1 3.19198703788 9.57596111364 1.4275
155 1 3.83038444546 11.4911533364 0.0
156 1 5.74557666819 10.8527559288 1.4275
157 1 0.0 6.38397407576 0.0
158 1 2.5535896303 7.66076889091 0.0
159 1 4.46878185303 7.02237148334 1.4275
160 1 5.10717926061 8.93756370607 0.0
161 1 1.91519222273 12.1295507439 4.2825
162 1 0.638397407576 8.29916629849 4.2825
163 1 1.27679481515 10.2143585212 2.855
164 1 3.19198703788 9.57596111364 4.2825
165 1 3.83038444546 11.4911533364 2.855
166 1 5.74557666819 10.8527559288 4.2825
167 1 0.0 6.38397407576 2.855
168 1 2.5535896303 7.66076889091 2.855
169 1 4.46878185303 7.02237148334 4.2825
170 1 5.10717926061 8.93756370607 2.855
171 1 1.91519222273 12.1295507439 7.1375
172 1 0.638397407576 8.29916629849 7.1375
173 1 1.27679481515 10.2143585212 5.71
174 1 3.19198703788 9.57596111364 7.1375
175 1 3.83038444546 11.4911533364 5.71
176 1 5.74557666819 10.8527559288 7.1375
177 1 0.0 6.38397407576 5.71
178 1 2.5535896303 7.66076889091 5.71
179 1 4.46878185303 7.02237148334 7.1375
180 1 5.10717926061 8.93756370607 5.71
181 1 1.91519222273 12.1295507439 9.9925
182 1 0.638397407576 8.29916629849 9.9925
183 1 1.27679481515 10.2143585212 8.565
184 1 3.19198703788 9.57596111364 9.9925
185 1 3.83038444546 11.4911533364 8.565
186 1 5.74557666819 10.8527559288 9.9925
187 1 0.0 6.38397407576 8.565
188 1 2.5535896303 7.66076889091 8.565
189 1 4.46878185303 7.02237148334 9.9925
190 1 5.10717926061 8.93756370607 8.565
191 1 1.91519222273 12.1295507439 12.8475
192 1 0.638397407576 8.29916629849 12.8475
193 1 1.27679481515 10.2143585212 11.42
194 1 3.19198703788 9.57596111364 12.8475
195 1 3.83038444546 11.4911533364 11.42
196 1 5.74557666819 10.8527559288 12.8475
197 1 0.0 6.38397407576 11.42
198 1 2.5535896303 7.66076889091 11.42
199 1 4.46878185303 7.02237148334 12.8475
200 1 5.10717926061 8.93756370607 11.42
201 1 1.91519222273 12.1295507439 15.7025
202 1 0.638397407576 8.29916629849 15.7025
203 1 1.27679481515 10.2143585212 14.275
204 1 3.19198703788 9.57596111364 15.7025
205 1 3.83038444546 11.4911533364 14.275
206 1 5.74557666819 10.8527559288 15.7025
207 1 0.0 6.38397407576 14.275
208 1 2.5535896303 7.66076889091 14.275
209 1 4.46878185303 7.02237148334 15.7025
210 1 5.10717926061 8.93756370607 14.275
211 1 1.91519222273 12.1295507439 18.5575
212 1 0.638397407576 8.29916629849 18.5575
213 1 1.27679481515 10.2143585212 17.13
214 1 3.19198703788 9.57596111364 18.5575
215 1 3.83038444546 11.4911533364 17.13
216 1 5.74557666819 10.8527559288 18.5575
217 1 0.0 6.38397407576 17.13
218 1 2.5535896303 7.66076889091 17.13
219 1 4.46878185303 7.02237148334 18.5575
220 1 5.10717926061 8.93756370607 17.13
221 1 1.91519222273 12.1295507439 21.4125
222 1 0.638397407576 8.29916629849 21.4125
223 1 1.27679481515 10.2143585212 19.985
224 1 3.19198703788 9.57596111364 21.4125
225 1 3.83038444546 11.4911533364 19.985
226 1 5.74557666819 10.8527559288 21.4125
227 1 0.0 6.38397407576 19.985
228 1 2.5535896303 7.66076889091 19.985
229 1 4.46878185303 7.02237148334 21.4125
230 1 5.10717926061 8.93756370607 19.985
231 1 1.91519222273 12.1295507439 24.2675
232 1 0.638397407576 8.29916629849 24.2675
233 1 1.27679481515 10.2143585212 22.84
234 1 3.19198703788 9.57596111364 24.2675
235 1 3.83038444546 11.4911533364 22.84
236 1 5.74557666819 10.8527559288 24.2675
237 1 0.0 6.38397407576 22.84
238 1 2.5535896303 7.66076889091 22.84
239 1 4.46878185303 7.02237148334 24.2675
240 1 5.10717926061 8.93756370607 22.84
241 1 1.91519222273 12.1295507439 27.1225
242 1 0.638397407576 8.29916629849 27.1225
243 1 1.27679481515 10.2143585212 25.695
244 1 3.19198703788 9.57596111364 27.1225
245 1 3.83038444546 11.4911533364 25.695
246 1 5.74557666819 10.8527559288 27.1225
247 1 0.0 6.38397407576 25.695
248 1 2.5535896303 7.66076889091 25.695
249 1 4.46878185303 7.02237148334 27.1225
250 1 5.10717926061 8.93756370607 25.695
251 1 1.91519222273 12.1295507439 29.9775
252 1 0.638397407576 8.29916629849 29.9775
253 1 1.27679481515 10.2143585212 28.55
254 1 3.19198703788 9.57596111364 29.9775
255 1 3.83038444546 11.4911533364 28.55
256 1 5.74557666819 10.8527559288 29.9775
257 1 0.0 6.38397407576 28.55
258 1 2.5535896303 7.66076889091 28.55
259 1 4.46878185303 7.02237148334 29.9775
260 1 5.10717926061 8.93756370607 28.55
261 1 1.91519222273 12.1295507439 32.8325
262 1 0.638397407576 8.29916629849 32.8325
263 1 1.27679481515 10.2143585212 31.405
264 1 3.19198703788 9.57596111364 32.8325
265 1 3.83038444546 11.4911533364 31.405
266 1 5.74557666819 10.8527559288 32.8325
267 1 0.0 6.38397407576 31.405
268 1 2.5535896303 7.66076889091 31.405
269 1 4.46878185303 7.02237148334 32.8325
270 1 5.10717926061 8.93756370607 31.405
271 1 1.91519222273 12.1295507439 35.6875
272 1 0.638397407576 8.29916629849 35.6875
273 1 1.27679481515 10.2143585212 34.26
274 1 3.19198703788 9.57596111364 35.6875
275 1 3.83038444546 11.4911533364 34.26
276 1 5.74557666819 10.8527559288 35.6875
277 1 0.0 6.38397407576 34.26
278 1 2.5535896303 7.66076889091 34.26
279 1 4.46878185303 7.02237148334 35.6875
280 1 5.10717926061 8.93756370607 34.26
281 1 1.91519222273 12.1295507439 38.5425
282 1 0.638397407576 8.29916629849 38.5425
283 1 1.27679481515 10.2143585212 37.115
284 1 3.19198703788 9.57596111364 38.5425
285 1 3.83038444546 11.4911533364 37.115
286 1 5.74557666819 10.8527559288 38.5425
287 1 0.0 6.38397407576 37.115
288 1 2.5535896303 7.66076889091 37.115
289 1 4.46878185303 7.02237148334 38.5425
290 1 5.10717926061 8.93756370607 37.115
291 1 1.91519222273 12.1295507439 41.3975
292 1 0.638397407576 8.29916629849 41.3975
293 1 1.27679481515 10.2143585212 39.97
294 1 3.19198703788 9.57596111364 41.3975
295 1 3.83038444546 11.4911533364 39.97
296 1 5.74557666819 10.8527559288 41.3975
297 1 0.0 6.38397407576 39.97
298 1 2.5535896303 7.66076889091 39.97
299 1 4.46878185303 7.02237148334 41.3975
300 1 5.10717926061 8.93756370607 39.97
301 1 1.91519222273 18.5135248197 1.4275
302 1 0.638397407576 14.6831403743 1.4275
303 1 1.27679481515 16.598332597 0.0
304 1 3.19198703788 15.9599351894 1.4275
305 1 3.83038444546 17.8751274121 0.0
306 1 5.74557666819 17.2367300046 1.4275
307 1 0.0 12.7679481515 0.0
308 1 2.5535896303 14.0447429667 0.0
309 1 4.46878185303 13.4063455591 1.4275
310 1 5.10717926061 15.3215377818 0.0
311 1 1.91519222273 18.5135248197 4.2825
312 1 0.638397407576 14.6831403743 4.2825
313 1 1.27679481515 16.598332597 2.855
314 1 3.19198703788 15.9599351894 4.2825
315 1 3.83038444546 17.8751274121 2.855
316 1 5.74557666819 17.2367300046 4.2825
317 1 0.0 12.7679481515 2.855
318 1 2.5535896303 14.0447429667 2.855
319 1 4.46878185303 13.4063455591 4.2825
320 1 5.10717926061 15.3215377818 2.855
321 1 1.91519222273 18.5135248197 7.1375
322 1 0.638397407576 14.6831403743 7.1375
323 1 1.27679481515 16.598332597 5.71
324 1 3.19198703788 15.9599351894 7.1375
325 1 3.83038444546 17.8751274121 5.71
326 1 5.74557666819 17.2367300046 7.1375
327 1 0.0 12.7679481515 5.71
328 1 2.5535896303 14.0447429667 5.71
329 1 4.46878185303 13.4063455591 7.1375
330 1 5.10717926061 15.3215377818 5.71
331 1 1.91519222273 18.5135248197 9.9925
332 1 0.638397407576 14.6831403743 9.9925
333 1 1.27679481515 16.598332597 8.565
334 1 3.19198703788 15.9599351894 9.9925
335 1 3.83038444546 17.8751274121 8.565
336 1 5.74557666819 17.2367300046 9.9925
337 1 0.0 12.7679481515 8.565
338 1 2.5535896303 14.0447429667 8.565
339 1 4.46878185303 13.4063455591 9.9925
340 1 5.10717926061 15.3215377818 8.565
341 1 1.91519222273 18.5135248197 12.8475
342 1 0.638397407576 14.6831403743 12.8475
343 1 1.27679481515 16.598332597 11.42
344 1 3.19198703788 15.9599351894 12.8475
345 1 3.83038444546 17.8751274121 11.42
346 1 5.74557666819 17.2367300046 12.8475
347 1 0.0 12.7679481515 11.42
348 1 2.5535896303 14.0447429667 11.42
349 1 4.46878185303 13.4063455591 12.8475
350 1 5.10717926061 15.3215377818 11.42
351 1 1.91519222273 18.5135248197 15.7025
352 1 0.638397407576 14.6831403743 15.7025
353 1 1.27679481515 16.598332597 14.275
354 1 3.19198703788 15.9599351894 15.7025
355 1 3.83038444546 17.8751274121 14.275
356 1 5.74557666819 17.2367300046 15.7025
357 1 0.0 12.7679481515 14.275
358 1 2.5535896303 14.0447429667 14.275
359 1 4.46878185303 13.4063455591 15.7025
360 1 5.10717926061 15.3215377818 14.275
361 1 1.91519222273 18.5135248197 18.5575
362 1 0.638397407576 14.6831403743 18.5575
363 1 1.27679481515 16.598332597 17.13
364 1 3.19198703788 15.9599351894 18.5575
365 1 3.83038444546 17.8751274121 17.13
366 1 5.74557666819 17.2367300046 18.5575
367 1 0.0 12.7679481515 17.13
368 1 2.5535896303 14.0447429667 17.13
369 1 4.46878185303 13.4063455591 18.5575
370 1 5.10717926061 15.3215377818 17.13
371 1 1.91519222273 18.5135248197 21.4125
372 1 0.638397407576 14.6831403743 21.4125
373 1 1.27679481515 16.598332597 19.985
374 1 3.19198703788 15.9599351894 21.4125
375 1 3.83038444546 17.8751274121 19.985
376 1 5.74557666819 17.2367300046 21.4125
377 1 0.0 12.7679481515 19.985
378 1 2.5535896303 14.0447429667 19.985
379 1 4.46878185303 13.4063455591 21.4125
380 1 5.10717926061 15.3215377818 19.985
381 1 1.91519222273 18.5135248197 24.2675
382 1 0.638397407576 14.6831403743 24.2675
383 1 1.27679481515 16.598332597 22.84
384 1 3.19198703788 15.9599351894 24.2675
385 1 3.83038444546 17.8751274121 22.84
386 1 5.74557666819 17.2367300046 24.2675
387 1 0.0 12.7679481515 22.84
388 1 2.5535896303 14.0447429667 22.84
389 1 4.46878185303 13.4063455591 24.2675
390 1 5.10717926061 15.3215377818 22.84
391 1 1.91519222273 18.5135248197 27.1225
392 1 0.638397407576 14.6831403743 27.1225
393 1 1.27679481515 16.598332597 25.695
394 1 3.19198703788 15.9599351894 27.1225
395 1 3.83038444546 17.8751274121 25.695
396 1 5.74557666819 17.2367300046 27.1225
397 1 0.0 12.7679481515 25.695
398 1 2.5535896303 14.0447429667 25.695
399 1 4.46878185303 13.4063455591 27.1225
400 1 5.10717926061 15.3215377818 25.695
401 1 1.91519222273 18.5135248197 29.9775
402 1 0.638397407576 14.6831403743 29.9775
403 1 1.27679481515 16.598332597 28.55
404 1 3.19198703788 15.9599351894 29.9775
405 1 3.83038444546 17.8751274121 28.55
406 1 5.74557666819 17.2367300046 29.9775
407 1 0.0 12.7679481515 28.55
408 1 2.5535896303 14.0447429667 28.55
409 1 4.46878185303 13.4063455591 29.9775
410 1 5.10717926061 15.3215377818 28.55
411 1 1.91519222273 18.5135248197 32.8325
412 1 0.638397407576 14.6831403743 32.8325
413 1 1.27679481515 16.598332597 31.405
414 1 3.19198703788 15.9599351894 32.8325
415 1 3.83038444546 17.8751274121 31.405
416 1 5.74557666819 17.2367300046 32.8325
417 1 0.0 12.7679481515 31.405
418 1 2.5535896303 14.0447429667 31.405
419 1 4.46878185303 13.4063455591 32.8325
420 1 5.10717926061 15.3215377818 31.405
421 1 1.91519222273 18.5135248197 35.6875
422 1 0.638397407576 14.6831403743 35.6875
423 1 1.27679481515 16.598332597 34.26
424 1 3.19198703788 15.9599351894 35.6875
425 1 3.83038444546 17.8751274121 34.26
426 1 5.74557666819 17.2367300046 35.6875
427 1 0.0 12.7679481515 34.26
428 1 2.5535896303 14.0447429667 34.26
429 1 4.46878185303 13.4063455591 35.6875
430 1 5.10717926061 15.3215377818 34.26
431 1 1.91519222273 18.5135248197 38.5425
432 1 0.638397407576 14.6831403743 38.5425
433 1 1.27679481515 16.598332597 37.115
434 1 3.19198703788 15.9599351894 38.5425
435 1 3.83038444546 17.8751274121 37.115
436 1 5.74557666819 17.2367300046 38.5425
437 1 0.0 12.7679481515 37.115
438 1 2.5535896303 14.0447429667 37.115
439 1 4.46878185303 13.4063455591 38.5425
440 1 5.10717926061 15.3215377818 37.115
441 1 1.91519222273 18.5135248197 41.3975
442 1 0.638397407576 14.6831403743 41.3975
443 1 1.27679481515 16.598332597 39.97
444 1 3.19198703788 15.9599351894 41.3975
445 1 3.83038444546 17.8751274121 39.97
446 1 5.74557666819 17.2367300046 41.3975
447 1 0.0 12.7679481515 39.97
448 1 2.5535896303 14.0447429667 39.97
449 1 4.46878185303 13.4063455591 41.3975
450 1 5.10717926061 15.3215377818 39.97
451 1 1.91519222273 24.8974988955 1.4275
452 1 0.638397407576 21.06711445 1.4275
453 1 1.27679481515 22.9823066727 0.0
454 1 3.19198703788 22.3439092652 1.4275
455 1 3.83038444546 24.2591014879 0.0
456 1 5.74557666819 23.6207040803 1.4275
457 1 0.0 19.1519222273 0.0
458 1 2.5535896303 20.4287170424 0.0
459 1 4.46878185303 19.7903196349 1.4275
460 1 5.10717926061 21.7055118576 0.0
461 1 1.91519222273 24.8974988955 4.2825
462 1 0.638397407576 21.06711445 4.2825
463 1 1.27679481515 22.9823066727 2.855
464 1 3.19198703788 22.3439092652 4.2825
465 1 3.83038444546 24.2591014879 2.855
466 1 5.74557666819 23.6207040803 4.2825
467 1 0.0 19.1519222273 2.855
468 1 2.5535896303 20.4287170424 2.855
469 1 4.46878185303 19.7903196349 4.2825
470 1 5.10717926061 21.7055118576 2.855
471 1 1.91519222273 24.8974988955 7.1375
472 1 0.638397407576 21.06711445 7.1375
473 1 1.27679481515 22.9823066727 5.71
474 1 3.19198703788 22.3439092652 7.1375
475 1 3.83038444546 24.2591014879 5.71
476 1 5.74557666819 23.6207040803 7.1375
477 1 0.0 19.1519222273 5.71
478 1 2.5535896303 20.4287170424 5.71
479 1 4.46878185303 19.7903196349 7.1375
480 1 5.10717926061 21.7055118576 5.71
481 1 1.91519222273 24.8974988955 9.9925
482 1 0.638397407576 21.06711445 9.9925
483 1 1.27679481515 22.9823066727 8.565
484 1 3.19198703788 22.3439092652 9.9925
485 1 3.83038444546 24.2591014879 8.565
486 1 5.74557666819 23.6207040803 9.9925
487 1 0.0 19.1519222273 8.565
488 1 2.5535896303 20.4287170424 8.565
489 1 4.46878185303 19.7903196349 9.9925
490 1 5.10717926061 21.7055118576 8.565
491 1 1.91519222273 24.8974988955 12.8475
492 1 0.638397407576 21.06711445 12.8475
493 1 1.27679481515 22.9823066727 11.42
494 1 3.19198703788 22.3439092652 12.8475
495 1 3.83038444546 24.2591014879 11.42
496 1 5.74557666819 23.6207040803 12.8475
497 1 0.0 19.1519222273 11.42
498 1 2.5535896303 20.4287170424 11.42
499 1 4.46878185303 19.7903196349 12.8475
500 1 5.10717926061 21.7055118576 11.42
501 1 1.91519222273 24.8974988955 15.7025
502 1 0.638397407576 21.06711445 15.7025
503 1 1.27679481515 22.9823066727 14.275
504 1 3.19198703788 22.3439092652 15.7025
505 1 3.83038444546 24.2591014879 14.275
506 1 5.74557666819 23.6207040803 15.7025
507 1 0.0 19.1519222273 14.275
508 1 2.5535896303 20.4287170424 14.275
509 1 4.46878185303 19.7903196349 15.7025
510 1 5.10717926061 21.7055118576 14.275
511 1 1.91519222273 24.8974988955 18.5575
512 1 0.638397407576 21.06711445 18.5575
513 1 1.27679481515 22.9823066727 17.13
514 1 3.19198703788 22.3439092652 18.5575
515 1 3.83038444546 24.2591014879 17.13
516 1 5.74557666819 23.6207040803 18.5575
517 1 0.0 19.1519222273 17.13
518 1 2.5535896303 20.4287170424 17.13
519 1 4.46878185303 19.7903196349 18.5575
520 1 5.10717926061 21.7055118576 17.13
521 1 1.91519222273 24.8974988955 21.4125
522 1 0.638397407576 21.06711445 21.4125
523 1 1.27679481515 22.9823066727 19.985
524 1 3.19198703788 22.3439092652 21.4125
525 1 3.83038444546 24.2591014879 19.985
526 1 5.74557666819 23.6207040803 21.4125
527 1 0.0 19.1519222273 19.985
528 1 2.5535896303 20.4287170424 19.985
529 1 4.46878185303 19.7903196349 21.4125
530 1 5.10717926061 21.7055118576 19.985
531 1 1.91519222273 24.8974988955 24.2675
532 1 0.638397407576 21.06711445 24.2675
533 1 1.27679481515 22.9823066727 22.84
534 1 3.19198703788 22.3439092652 24.2675
535 1 3.83038444546 24.2591014879 22.84
536 1 5.74557666819 23.6207040803 24.2675
537 1 0.0 19.1519222273 22.84
538 1 2.5535896303 20.4287170424 22.84
539 1 4.46878185303 19.7903196349 24.2675
540 1 5.10717926061 21.7055118576 22.84
541 1 1.91519222273 24.8974988955 27.1225
542 1 0.638397407576 21.06711445 27.1225
543 1 1.27679481515 22.9823066727 25.695
544 1 3.19198703788 22.3439092652 27.1225
545 1 3.83038444546 24.2591014879 25.695
546 1 5.74557666819 23.6207040803 27.1225
547 1 0.0 19.1519222273 25.695
548 1 2.5535896303 20.4287170424 25.695
549 1 4.46878185303 19.7903196349 27.1225
550 1 5.10717926061 21.7055118576 25.695
551 1 1.91519222273 24.8974988955 29.9775
552 1 0.638397407576 21.06711445 29.9775
553 1 1.27679481515 22.9823066727 28.55
554 1 3.19198703788 22.3439092652 29.9775
555 1 3.83038444546 24.2591014879 28.55
556 1 5.74557666819 23.6207040803 29.9775
557 1 0.0 19.1519222273 28.55
558 1 2.5535896303 20.4287170424 28.55
559 1 4.46878185303 19.7903196349 29.9775
560 1 5.10717926061 21.7055118576 28.55
561 1 1.91519222273 24.8974988955 32.8325
562 1 0.638397407576 21.06711445 32.8325
563 1 1.27679481515 22.9823066727 31.405
564 1 3.19198703788 22.3439092652 32.8325
565 1 3.83038444546 24.2591014879 31.405
566 1 5.74557666819 23.6207040803 32.8325
567 1 0.0 19.1519222273 31.405
568 1 2.5535896303 20.4287170424 31.405
569 1 4.46878185303 19.7903196349 32.8325
570 1 5.10717926061 21.7055118576 31.405
571 1 1.91519222273 24.8974988955 35.6875
572 1 0.638397407576 21.06711445 35.6875
573 1 1.27679481515 22.9823066727 34.26
574 1 3.19198703788 22.3439092652 35.6875
575 1 3.83038444546 24.2591014879 34.26
576 1 5.74557666819 23.6207040803 35.6875
577 1 0.0 19.1519222273 34.26
578 1 2.5535896303 20.4287170424 34.26
579 1 4.46878185303 19.7903196349 35.6875
580 1 5.10717926061 21.7055118576 34.26
581 1 1.91519222273 24.8974988955 38.5425
582 1 0.638397407576 21.06711445 38.5425
583 1 1.27679481515 22.9823066727 37.115
584 1 3.19198703788 22.3439092652 38.5425
585 1 3.83038444546 24.2591014879 37.115
586 1 5.74557666819 23.6207040803 38.5425
587 1 0.0 19.1519222273 37.115
588 1 2.5535896303 20.4287170424 37.115
589 1 4.46878185303 19.7903196349 38.5425
590 1 5.10717926061 21.7055118576 37.115
591 1 1.91519222273 24.8974988955 41.3975
592 1 0.638397407576 21.06711445 41.3975
593 1 1.27679481515 22.9823066727 39.97
594 1 3.19198703788 22.3439092652 41.3975
595 1 3.83038444546 24.2591014879 39.97
596 1 5.74557666819 23.6207040803 41.3975
597 1 0.0 19.1519222273 39.97
598 1 2.5535896303 20.4287170424 39.97
599 1 4.46878185303 19.7903196349 41.3975
600 1 5.10717926061 21.7055118576 39.97
601 1 1.91519222273 31.2814729712 1.4275
602 1 0.638397407576 27.4510885258 1.4275
603 1 1.27679481515 29.3662807485 0.0
604 1 3.19198703788 28.7278833409 1.4275
605 1 3.83038444546 30.6430755637 0.0
606 1 5.74557666819 30.0046781561 1.4275
607 1 0.0 25.535896303 0.0
608 1 2.5535896303 26.8126911182 0.0
609 1 4.46878185303 26.1742937106 1.4275
610 1 5.10717926061 28.0894859334 0.0
611 1 1.91519222273 31.2814729712 4.2825
612 1 0.638397407576 27.4510885258 4.2825
613 1 1.27679481515 29.3662807485 2.855
614 1 3.19198703788 28.7278833409 4.2825
615 1 3.83038444546 30.6430755637 2.855
616 1 5.74557666819 30.0046781561 4.2825
617 1 0.0 25.535896303 2.855
618 1 2.5535896303 26.8126911182 2.855
619 1 4.46878185303 26.1742937106 4.2825
620 1 5.10717926061 28.0894859334 2.855
621 1 1.91519222273 31.2814729712 7.1375
622 1 0.638397407576 27.4510885258 7.1375
623 1 1.27679481515 29.3662807485 5.71
624 1 3.19198703788 28.7278833409 7.1375
625 1 3.83038444546 30.6430755637 5.71
626 1 5.74557666819 30.0046781561 7.1375
627 1 0.0 25.535896303 5.71
628 1 2.5535896303 26.8126911182 5.71
629 1 4.46878185303 26.1742937106 7.1375
630 1 5.10717926061 28.0894859334 5.71
631 1 1.91519222273 31.2814729712 9.9925
632 1 0.638397407576 27.4510885258 9.9925
633 1 1.27679481515 29.3662807485 8.565
634 1 3.19198703788 28.7278833409 9.9925
635 1 3.83038444546 30.6430755637 8.565
636 1 5.74557666819 30.0046781561 9.9925
637 1 0.0 25.535896303 8.565
638 1 2.5535896303 26.8126911182 8.565
639 1 4.46878185303 26.1742937106 9.9925
640 1 5.10717926061 28.0894859334 8.565
641 1 1.91519222273 31.2814729712 12.8475
642 1 0.638397407576 27.4510885258 12.8475
643 1 1.27679481515 29.3662807485 11.42
644 1 3.19198703788 28.7278833409 12.8475
645 1 3.83038444546 30.6430755637 11.42
646 1 5.74557666819 30.0046781561 12.8475
647 1 0.0 25.535896303 11.42
648 1 2.5535896303 26.8126911182 11.42
649 1 4.46878185303 26.1742937106 12.8475
650 1 5.10717926061 28.0894859334 11.42
651 1 1.91519222273 31.2814729712 15.7025
652 1 0.638397407576 27.4510885258 15.7025
653 1 1.27679481515 29.3662807485 14.275
654 1 3.19198703788 28.7278833409 15.7025
655 1 3.83038444546 30.6430755637 14.275
656 1 5.74557666819 30.0046781561 15.7025
657 1 0.0 25.535896303 14.275
658 1 2.5535896303 26.8126911182 14.275
659 1 4.46878185303 26.1742937106 15.7025
660 1 5.10717926061 28.0894859334 14.275
661 1 1.91519222273 31.2814729712 18.5575
662 1 0.638397407576 27.4510885258 18.5575
663 1 1.27679481515 29.3662807485 17.13
664 1 3.19198703788 28.7278833409 18.5575
665 1 3.83038444546 30.6430755637 17.13
666 1 5.74557666819 30.0046781561 18.5575
667 1 0.0 25.535896303 17.13
668 1 2.5535896303 26.8126911182 17.13
669 1 4.46878185303 26.1742937106 18.5575
670 1 5.10717926061 28.0894859334 17.13
671 1 1.91519222273 31.2814729712 21.4125
672 1 0.638397407576 27.4510885258 21.4125
673 1 1.27679481515 29.3662807485 19.985
674 1 3.19198703788 28.7278833409 21.4125
675 1 3.83038444546 30.6430755637 19.985
676 1 5.74557666819 30.0046781561 21.4125
677 1 0.0 25.535896303 19.985
678 1 2.5535896303 26.8126911182 19.985
679 1 4.46878185303 26.1742937106 21.4125
680 1 5.10717926061 28.0894859334 19.985
681 1 1.91519222273 31.2814729712 24.2675
682 1 0.638397407576 27.4510885258 24.2675
683 1 1.27679481515 29.3662807485 22.84
684 1 3.19198703788 28.7278833409 24.2675
685 1 3.83038444546 30.6430755637 22.84
686 1 5.74557666819 30.0046781561 24.2675
687 1 0.0 25.535896303 22.84
688 1 2.5535896303 26.8126911182 22.84
689 1 4.46878185303 26.1742937106 24.2675
690 1 5.10717926061 28.0894859334 22.84
691 1 1.91519222273 31.2814729712 27.1225
692 1 0.638397407576 27.4510885258 27.1225
693 1 1.27679481515 29.3662807485 25.695
694 1 3.19198703788 28.7278833409 27.1225
695 1 3.83038444546 30.6430755637 25.695
696 1 5.74557666819 30.0046781561 27.1225
697 1 0.0 25.535896303 25.695
698 1 2.5535896303 26.8126911182 25.695
699 1 4.46878185303 26.1742937106 27.1225
700 1 5.10717926061 28.0894859334 25.695
701 1 1.91519222273 31.2814729712 29.9775
702 1 0.638397407576 27.4510885258 29.9775
703 1 1.27679481515 29.3662807485 28.55
704 1 3.19198703788 28.7278833409 29.9775
705 1 3.83038444546 30.6430755637 28.55
706 1 5.74557666819 30.0046781561 29.9775
707 1 0.0 25.535896303 28.55
708 1 2.5535896303 26.8126911182 28.55
709 1 4.46878185303 26.1742937106 29.9775
710 1 5.10717926061 28.0894859334 28.55
711 1 1.91519222273 31.2814729712 32.8325
712 1 0.638397407576 27.4510885258 32.8325
713 1 1.27679481515 29.3662807485 31.405
714 1 3.19198703788 28.7278833409 32.8325
715 1 3.83038444546 30.6430755637 31.405
716 1 5.74557666819 30.0046781561 32.8325
717 1 0.0 25.535896303 31.405
718 1 2.5535896303 26.8126911182 31.405
719 1 4.46878185303 26.1742937106 32.8325
720 1 5.10717926061 28.0894859334 31.405
721 1 1.91519222273 31.2814729712 35.6875
722 1 0.638397407576 27.4510885258 35.6875
723 1 1.27679481515 29.3662807485 34.26
724 1 3.19198703788 28.7278833409 35.6875
725 1 3.83038444546 30.6430755637 34.26
726 1 5.74557666819 30.0046781561 35.6875
727 1 0.0 25.535896303 34.26
728 1 2.5535896303 26.8126911182 34.26
729 1 4.46878185303 26.1742937106 35.6875
730 1 5.10717926061 28.0894859334 34.26
731 1 1.91519222273 31.2814729712 38.5425
732 1 0.638397407576 27.4510885258 38.5425
733 1 1.27679481515 29.3662807485 37.115
734 1 3.19198703788 28.7278833409 38.5425
735 1 3.83038444546 30.6430755637 37.115
736 1 5.74557666819 30.0046781561 38.5425
737 1 0.0 25.535896303 37.115
738 1 2.5535896303 26.8126911182 37.115
739 1 4.46878185303 26.1742937106 38.5425
740 1 5.10717926061 28.0894859334 37.115
741 1 1.91519222273 31.2814729712 41.3975
742 1 0.638397407576 27.4510885258 41.3975
743 1 1.27679481515 29.3662807485 39.97
744 1 3.19198703788 28.7278833409 41.3975
745 1 3.83038444546 30.6430755637 39.97
746 1 5.74557666819 30.0046781561 41.3975
747 1 0.0 25.535896303 39.97
748 1 2.5535896303 26.8126911182 39.97
749 1 4.46878185303 26.1742937106 41.3975
750 1 5.10717926061 28.0894859334 39.97
751 1 1.91519222273 37.665447047 1.4275
752 1 0.638397407576 33.8350626015 1.4275
753 1 1.27679481515 35.7502548243 0.0
754 1 3.19198703788 35.1118574167 1.4275
755 1 3.83038444546 37.0270496394 0.0