#Header

5248 atoms

2 atom types

0.0 45.68 xlo xhi
0.0 36.5618393957 ylo yhi
0.0 36.5618393957 zlo zhi


Atoms

409 2 3.20521124628 1.31132574313 2.33319783429
39 1 1.76066208628 3.37126037564 2.13058522531
697 1 7.14393845011 1.66098999918 0.0895125536653
737 1 5.75575487676 1.44003302592 2.05640612156
695 1 7.14342307855 3.46538253511 2.32494876107
367 1 4.35205526617 3.45927957814 2.22600133486
736 1 5.72008206218 3.63426545887 0.289242102049
369 1 4.19220734453 1.64944199698 0.0705930522547
1025 1 9.98617672334 1.66868676141 0.0974156721949
1065 1 8.565995588 1.46856663718 2.09949741806
1023 1 9.96484489938 3.48795011144 2.35239199686
1393 1 11.3434779165 1.46477140837 2.12581103469
1353 2 12.7402705395 1.80134023086 0.212506407192
1721 1 14.1619019485 1.47317974351 2.12527451839
1351 1 12.7501106933 3.47038399817 2.34553671846
1681 1 15.4943044902 1.68259095878 0.0867261225308
2049 1 16.9297026774 1.4765735455 2.05039523102
1679 1 15.5934984074 3.47534264635 2.32324019654
2007 1 18.3522367657 3.45435302649 2.24873043876
2009 1 18.4725826023 1.7237926903 0.14872018616
2048 1 16.9545839065 3.64471460973 0.2779984385
2377 1 19.8459436328 1.55827536951 2.19548440375
2337 1 21.3414410488 1.89102051574 0.280470272415
2477 1 21.6798980214 0.222981250462 2.48936829471
2336 1 22.9187302872 2.26039294865 2.19883508193
3032 1 25.9505498942 2.26845135356 1.99232913391
2665 1 24.3920568364 0.349794042493 2.38018719847
3034 1 25.7912145881 0.227893642809 0.309191307471
2731 1 24.2837211641 2.03299461559 0.115604154599
3360 2 28.6954591143 2.43130853285 1.90563815201
3321 1 30.0936689144 0.46006563244 2.17897843024
2993 1 27.3422161386 0.389536376254 2.19200265551
3362 1 28.6713204929 0.237270590304 0.166074163535
3649 1 32.9126917549 0.505839774948 2.18376184126
3688 1 31.4663892701 2.47642775077 1.95186030461
3690 1 31.4931911548 0.277022311654 0.183203272888
4016 1 34.2957035084 2.52381089206 1.96418659742
4018 1 34.2962866018 0.304338481286 0.160531416076
3977 1 35.7171375574 0.527032657424 2.18084670259
4344 1 37.079328282 2.56619413873 1.96533099592
4346 1 37.0766684635 0.322250288744 0.137366272375
4305 1 38.4563693776 0.552421821832 2.15588446119
4672 1 39.813089257 2.5903526513 1.94181409141
4633 1 41.1706060577 0.567666994795 2.13562205316
4674 1 39.8437750939 0.334717920827 0.0987502727369
81 1 45.2958770214 2.51949366308 1.95153410307
5000 1 42.5445335864 2.55680214723 1.89835297672
4961 1 43.9797268458 0.539419545614 1.95434088303
5002 1 42.4682890667 0.293956417077 0.0912495499692
408 1 2.90974144311 3.87452761957 0.0902954615213
36 1 2.9149536709 5.43384067347 2.55471873093
35 1 1.48693171517 5.72748353545 0.518745731584
77 1 0.161028271602 5.23886087261 2.57879034627
366 1 4.37141364642 5.68309509344 0.56063724483
694 1 7.14614724551 5.65295195417 0.575213086084
733 1 5.7134825542 5.44524750654 2.60403087135
1064 1 8.56192867193 3.66608655789 0.327566089003
1392 1 11.3377859482 3.7159315009 0.330239115549
1022 1 9.95582828869 5.68753469802 0.569328553341
1061 1 8.56433945844 5.46674989718 2.60078659939
1389 1 11.3774685084 5.48428526534 2.57838117658
1720 1 14.1752563921 3.72778707607 0.330921766832
1350 1 12.7702729497 5.69996040647 0.543832405624
1717 1 14.1722818225 5.4244601312 2.54852564301
1678 1 15.6210440687 5.70115145259 0.540863495856
2006 1 18.2248886951 5.71964161878 0.41693243155
2045 1 17.0394708644 5.46144901094 2.56398536093
2335 1 21.0725662331 3.74870205792 2.61848400573
2376 1 19.9274060717 3.8336095371 0.335748417675
2373 2 19.5883491877 5.48813121046 2.16451482516
2759 1 21.308886683 6.5415180519 3.39602052104
2767 1 22.7425505898 3.91044379601 0.277031089087
2722 2 23.2415434153 6.88665092428 2.12980006737
2663 2 24.6697590089 4.05350604637 1.72579366404
3028 1 25.8538902018 6.35202436287 1.69696239075
3029 1 23.2067626011 4.90479519538 3.28318028281
2986 1 27.2905186436 4.38794253735 1.76222546708
3318 1 30.0749926707 4.45540727713 1.72902022204
3356 1 28.6695303705 6.40883949365 1.56223504015
3023 1 27.3045463472 6.68262349288 3.60848837119
3314 1 30.0787291662 6.70322348828 3.55512147823
3646 1 32.8514305509 4.50135147843 1.73355206736
3684 1 31.4253630402 6.48727573763 1.51185616079
3642 1 32.830792234 6.73097461212 3.52736587919
4012 1 34.2269182704 6.53534147036 1.5211872585
3970 1 35.6415293316 6.76617265728 3.53446156422
3974 1 35.6676607627 4.55454893886 1.75895057471
4340 1 37.0015465911 6.57798860299 1.51194751753
4298 2 38.4058306572 6.89773784351 3.43876366058
4302 1 38.4261640191 4.59614768094 1.75297169778
4630 1 41.1545334008 4.60527246462 1.74374148518
4668 1 39.7948943715 6.62424852332 1.53893815651
4626 1 41.1811491947 6.91418049379 3.54140535532
4958 2 43.7745890777 4.66912259983 1.80071420159
4996 1 42.435041429 6.73374295423 1.55864141553
4954 1 44.2706974903 7.02286114685 3.0466307207
80 1 45.5339329375 4.05008091303 0.0837134524745
5018 1 44.163105869 6.24152499432 0.0935364729418
70 1 1.44997880882 7.34111869985 2.90115554603
404 1 2.94185947311 7.64842971533 0.796573238547
38 1 1.57065658057 9.58795490519 1.08691657102
392 1 2.8704711762 9.4001781355 3.08717517443
135 1 0.253374005176 7.62902302424 0.756176053608
362 1 4.28878346713 7.43104846551 2.85203178116
361 1 4.36458946855 9.61862940568 1.04658742256
689 1 7.17075461103 9.6615911218 0.996404716136
690 1 7.13104992082 7.43436226591 2.79018325661
727 1 5.75241200633 9.40664498488 3.03368592778
732 1 5.75273076938 7.65794299783 0.801466909132
1017 1 9.97384998015 9.64809528647 0.968950946068
1018 1 9.97497123359 7.4508604571 2.78685622664
1055 1 8.58764773338 9.41853646154 2.9866727902
1060 1 8.56114187736 7.66712048134 0.793381098218
1388 1 11.3746892766 7.68695776073 0.764931428396
1383 1 11.4174762442 9.43412414562 2.95631634783
1345 1 12.8331367903 9.67506126568 0.95008529504
1346 1 12.8410406902 7.46686996159 2.71174508369
1711 1 14.2822147071 9.47771606498 2.95010515885
1716 1 14.2128705465 7.69424862816 0.725067670427
2002 1 18.5351207562 7.42834514924 2.76786587935
1673 1 15.5780177913 9.71892554834 0.925903447205
1674 1 15.5726845414 7.3627158303 2.74663399756
2039 1 16.8560084632 9.19999367481 3.09793894624
2044 1 17.0258286882 7.77497972906 0.786522231565
2001 1 18.1896518457 9.84429299913 1.06425346412
2366 2 18.183281461 10.9083318826 3.40439636389
2334 1 19.9707036315 7.73284750337 0.714378300476
2367 2 20.5174759876 8.6314752206 3.13426246386
2372 1 22.9235643044 7.94902499389 0.223240260961
2323 1 22.9870636989 8.91904800335 3.25390641599
2421 1 23.5494966296 10.3972299048 0.608457271028
2059 1 24.7588747905 8.49028716546 1.63192003094
2657 1 26.0291727951 8.78779878689 3.50206188716
3022 1 26.058365101 10.3512578606 1.07354671293
2643 1 24.5933153687 10.7495780562 3.1311966395
2979 1 27.3427429106 10.6988252351 3.21007621174
2985 1 27.3245197587 8.36130897462 1.44499008252
3307 1 30.0100508061 10.7522001488 3.14049520355
3313 1 30.0115049014 8.47577462418 1.32140743025
3350 1 28.6400354368 10.4809252081 1.14429406725
3351 1 28.6878001012 8.6974161255 3.41081273483
3635 1 32.7892170887 10.7645287047 3.10654613423
3641 1 32.7974105989 8.5298791355 1.30149285716
3678 1 31.3726295665 10.5270987891 1.09738557862
3679 1 31.4217296608 8.74167428546 3.32709748187
4007 1 34.203988394 8.75698274472 3.31618808018
4006 1 34.1766745772 10.5559870787 1.08911305639
3963 1 35.5740158587 10.7876739862 3.09960589536
3969 1 35.5923515012 8.56803971902 1.3006359493
4334 1 36.971560522 10.5923872955 1.09891437831
4335 1 36.9705956699 8.80863029663 3.31693087109
4291 1 38.3496004395 10.8214798685 3.11140476981
4297 1 38.3806825805 8.61011666528 1.32107448968
4619 1 41.1683703838 10.8251378442 3.11516634779
4625 1 41.1401073415 8.71481728175 1.38097349908
4662 1 39.7342536394 10.6560307908 1.1203277289
4663 1 39.7742615538 8.86310765232 3.34093639819
33 1 45.6538820163 9.21149184617 3.05800543693
71 1 44.1285533243 8.94164125662 1.10477679068
4953 1 42.579213799 10.7310282655 1.15197392184
4991 1 42.710626203 8.89649605531 3.227600839
398 1 3.02601085815 11.6286837989 1.38523119825
399 1 1.39198200873 11.3594242807 3.21203960172
391 2 3.14499355119 13.2771432881 3.45346037804
453 1 1.5545321385 13.5429880725 1.31817761145
354 1 4.42489308194 13.6570516727 1.4235767422
355 1 4.4040658722 11.3579437573 3.26600438754
682 1 7.23618280388 13.635200168 1.38728552273
683 1 7.20867266757 11.4065485882 3.19355903421
726 1 5.78007219171 11.6451733601 1.2188781189
719 1 5.84218718894 13.3935363862 3.39439171864
1010 1 10.0483535736 13.6416356846 1.34950476684
1011 1 10.008886619 11.4072854063 3.17567752308
1054 1 8.61760542576 11.6549989962 1.16703090287
1047 1 8.65808060403 13.4069007357 3.36498376914
1382 2 11.4137568836 11.5657193236 1.23336215562
1375 1 11.431646487 13.4130298533 3.3457561347
1338 1 12.7912911691 13.6777262664 1.33058481754
1339 1 12.8592536842 11.4316303901 3.16671745627
1710 1 14.1885623547 11.7239356349 1.12853073547
1703 1 14.200697057 13.4429851487 3.31757856107
1666 1 15.532969166 13.8123114308 1.2725708779
1667 1 15.7193159652 11.4845296293 3.11339538131
1994 1 18.4482342506 13.7738581163 1.3778842471
1995 2 16.7005507615 11.8589947167 0.772716774888
2031 2 16.7722130647 13.8540314412 3.17561464007
2688 2 22.396832615 11.2411419954 2.47705915598
2359 2 19.7976286107 11.8151204066 0.900608406677
2678 1 21.0914378256 13.4412779765 1.86701399085
2694 2 25.0075365651 12.2579150166 0.916641727099
2642 1 26.1271993386 12.6872750965 2.86856696672
3014 1 25.6960993201 14.5737254257 0.790874637851
2866 2 23.237981531 14.5128835198 1.74945647831
2978 1 27.3718083599 12.5450053544 0.876883665159
3306 1 29.9781941214 12.5478332026 0.89047167583
3343 1 28.600948289 12.775557741 2.95715887595
3342 1 28.5674511606 14.5897457903 0.659850989369
3634 1 32.7552801351 12.548464292 0.884049391675
3670 1 31.4046875524 14.5443772499 0.627207515502
3671 1 31.3800208581 12.7690711596 2.9035515289
3999 1 34.1745808272 12.7809515723 2.88003131961
3998 1 34.161075654 14.5492731462 0.620484853436
3962 1 35.5804699868 12.5820844967 0.888264600095
4327 1 36.9502094093 12.7999364933 2.87931301078
4326 1 36.936452884 14.5992689958 0.62445054194
4290 1 38.3381187892 12.6291637125 0.873933549344
4618 1 41.121620118 12.6642273521 0.871319436693
4655 1 39.7410775625 12.8076596637 2.87717242953
4946 1 44.0751036883 10.9910122757 3.09782128262
129 1 45.5931721836 11.2280161148 1.1606907163
63 1 45.3486869803 13.0670773393 2.87928484045
4938 1 42.4795814242 12.8434718468 2.87340775929
4990 1 43.8526307293 12.7632599998 0.900715324716
390 1 1.49464860618 15.1415606406 3.15298906322
83 1 1.25955891772 16.4215031992 0.497479871018
26 2 3.19569091673 15.7541543835 1.57256755844
574 1 2.85814324593 18.0799118634 0.121129790217
345 1 4.59361005411 17.6495779409 1.87945353249
673 1 7.26838370964 17.6646689473 1.84089619736
718 1 5.88291252305 15.631021619 1.61251491301
674 1 7.28507076473 15.3970992725 3.60380798676
346 1 4.50052080018 15.3879143062 3.5516651438
1001 1 10.0405972032 17.6960349023 1.82989229315
1046 1 8.66462808676 15.6459116273 1.60442355311
1002 1 10.05454929 15.4217787173 3.60085499713
1374 1 11.4065842413 15.6717625385 1.58493963618
1329 1 12.7557779686 17.7230541254 1.82279846457
1702 1 14.1195516942 15.7389410936 1.55701674821
1330 1 12.7977011823 15.4378905614 3.58575974792
1657 1 15.5480508785 17.6920379924 1.81619562617
2030 1 17.142821495 15.7542936086 1.75854751613
1985 2 18.2644014002 17.7726201825 1.84567206854
1658 1 15.4481717588 15.5541594456 3.60107153276
2869 1 19.8062338942 15.8138034631 1.70257727975
2313 2 21.844471574 17.2511015315 1.50300568904
2824 1 21.8142739222 15.5451053372 3.3071333127
3006 2 25.6873291401 16.6227345261 2.57535991441
2641 1 24.1001468431 16.4758276911 0.427452416159
2970 1 27.2519381532 14.8129256928 2.67951870273
3298 1 29.9917314454 14.7764800513 2.66908142105
3297 1 29.9975890317 16.554520344 0.444500183234
3334 1 28.5986661328 16.7847796732 2.45783150211
2969 1 27.1126528108 16.565117137 0.518911165425
3626 1 32.7821414638 14.7733162385 2.65507590701
3625 1 32.7939058901 16.5496331325 0.402573064119
3662 1 31.4057013738 16.7815313167 2.42992119232
3990 1 34.1793054844 16.7865207739 2.42345600195
3954 1 35.5697508655 14.7935447715 2.64494536543
3953 1 35.5587288938 16.5773687788 0.412805113187
4318 1 36.9607632061 16.8158525707 2.42297895046
4654 1 39.7339666269 14.6395896269 0.61574392297
4282 2 38.3455284806 14.8185061118 2.64088863265
4610 1 41.0765410848 14.8347042207 2.62961159768
4646 1 39.7367083019 16.8529478443 2.42841381652
4609 1 41.099481172 16.6728250743 0.402845463841
4281 1 38.3463602618 16.6269007878 0.415909641029
4982 1 42.4661110422 14.7014888588 0.612725826969
125 1 45.252152423 14.7206077383 0.835768028669
27 1 43.7299163379 14.8932370418 2.60899851995
62 1 45.3301349092 16.7492246558 2.37985431905
4974 1 42.4571403044 16.8736222803 2.41159125914
4937 1 43.9132745748 16.6945455284 0.424731233396
17 1 1.12604419438 18.7152226184 2.20384078071
573 2 3.28651709604 19.4678349482 2.42594815091
244 1 1.83508923482 21.4465651731 2.34427348309
572 1 3.00481065459 21.9225223435 0.213784989963
205 2 1.39643535712 20.2287091363 0.0326849457523
861 1 7.2122311741 19.9130104702 0.0681416776352
901 1 5.87982910276 19.6688832554 2.11880826226
859 1 7.24376985237 21.6860066025 2.30280646878
531 1 4.47047103774 21.6286360978 2.30520934263
900 1 5.79350699018 21.8791526109 0.285745157739
533 1 4.39823867423 19.9118167235 0.132483992514
1189 1 9.99750014694 19.9318235067 0.0540059005942
1229 1 8.64586235505 19.6912574827 2.08121079633
1187 1 10.0329502397 21.7024339721 2.29789187083
1557 1 11.4123221643 19.7253645359 2.06928576492
1228 1 8.60134339055 21.9149987193 0.279120298546
1517 1 12.7709223213 19.9554088075 0.050045509927
1885 1 14.1346586966 19.7247476831 2.04085092635
1515 2 12.7775308216 21.8243457888 2.1915768362
2213 1 16.8502216453 19.7303158528 2.01167439424
1845 1 15.5678031056 19.9724052966 0.0427598584219
1843 1 15.5245844959 21.7335026374 2.27597542908
2173 1 18.4786432963 20.0631701569 0.144650628593
2171 1 18.1941482197 21.6857300045 2.27982811456
2828 1 20.4142794861 20.6726296869 2.1050818419
2542 1 20.056992259 18.3550328871 0.254012936218
2351 1 20.3379265951 18.5600661711 2.97489455989
2868 1 23.0356199774 20.7341051069 1.93213677499
3196 1 25.6981778915 20.5893986595 2.03135328937
2500 2 23.8014995893 19.2038121595 3.47193536592
3198 2 25.7115681429 18.6018743913 0.147169421318
3157 1 27.2031742341 18.6998271109 2.18178780189
3485 1 30.0040602487 18.7862698891 2.20621067852
3524 1 28.5942514576 20.7509208815 1.99006940179
3526 1 28.6028698129 18.532121761 0.215808267957
3223 1 27.2113574276 20.5223369218 0.030326179088
3854 1 31.4064421781 18.5644199564 0.194557266884
3813 1 32.8036337906 18.799840106 2.19293833001
3852 1 31.4389213748 20.8208128022 1.95897999355
4182 1 34.1787062424 18.5838519133 0.177294565713
4180 1 34.1972430943 20.8081989368 1.95098951888
4510 1 36.9619715172 18.6158780479 0.179046974024
4141 1 35.5722118119 18.8046118968 2.17928763934
4508 1 36.9263322419 20.8500974145 1.91267274445
4797 1 41.1139622094 18.8644832218 2.16660942359
4469 1 38.3537967403 18.8375467418 2.19527849989
4836 1 39.7360735811 20.8588503619 1.8832850369
4838 1 39.7267224213 18.6635672702 0.171912337155
245 1 45.3263389355 20.7395147826 2.03243855003
5125 1 43.9303156028 18.7877324847 2.0940709509
5164 1 42.5621475262 20.8474522276 1.91219101051
5166 1 42.5305738042 18.638454747 0.163696402024
246 1 45.5196961129 18.4884841306 0.187342966197
569 1 3.0982015023 23.581922403 2.65430671509
627 1 1.82326140328 23.8376566779 0.678653155355
5122 1 0.40274030567 23.3411527186 2.70083799457
198 1 1.60635792062 25.515704947 2.88547095692
530 1 4.42956971006 23.8519103924 0.568968270503
858 1 7.20615157734 23.8881467876 0.543637984782
897 1 5.8372541374 23.6618676163 2.57682151937
1556 1 11.3625179055 21.9438461488 0.25302787033
1186 1 9.98261027606 23.9332135994 0.512721399265
1225 1 8.63277033066 23.6918229378 2.54664422934
1553 1 11.3809904417 23.7316057345 2.52863373351
1884 1 14.1818082138 21.9656142225 0.251290767666
1514 1 12.7669454065 23.9546516385 0.507843894749
1881 1 14.1822565296 23.7507487712 2.5154044588
2212 1 16.9771473496 22.0013822864 0.249626803388
1842 1 15.5863540057 23.9734786802 0.507972530437
2170 1 18.3973056904 24.0303206875 0.470888445764
2209 1 16.9593455781 23.7342075198 2.54502569857
2540 2 19.6921115672 22.1106954469 0.404401437049
2495 1 19.6637298136 23.6144939811 2.52236599
2537 1 21.2521295225 24.2980749035 0.181969603997
2494 1 21.7555521213 22.7009522084 1.94892748947
2531 1 21.4427729349 25.2188733297 3.13148528929
2923 1 23.2254194238 24.7142725757 1.56215395824
2826 1 24.5563988715 22.7101292905 1.812527746
3192 1 25.8970485261 24.795784814 1.61599848915
2859 1 24.3798595289 25.1756725087 3.61426117016
3154 1 27.2187131097 22.7316984412 1.75743660064
3478 1 30.0702380499 25.0224145702 3.4936055367
3482 1 30.0400963741 22.7910805996 1.73446420709
3520 1 28.6379078017 24.7873314406 1.52466458532
3150 1 27.2763486607 25.0840405542 3.55927966415
3806 1 32.8606689834 25.0125848448 3.47638269373
3810 1 32.8796703544 22.8400463824 1.70683000804
3848 1 31.4671376704 24.8005751255 1.4824440506
4176 2 34.2158638105 25.0247335266 1.44717971544
4134 1 35.6046465104 25.0262087686 3.46369045941
4138 1 35.509238373 22.8589673672 1.69111984369
4504 1 36.9449789689 24.8307914556 1.44585403328
4462 1 38.362814108 25.0473363779 3.39388363972
4466 1 38.3278333292 22.8540985955 1.64687745653
4790 1 41.2718534023 25.1278206465 3.40006408296
4794 1 41.2102232553 22.862654796 1.62035430021
4832 1 39.8233756762 24.8490602338 1.44226721131
4833 1 39.7082014974 23.0360931572 3.55668168456
242 1 45.6654086245 25.2031302795 1.06593117615
5190 1 45.6610416814 22.3290468312 0.183512385159
5160 1 42.6717677612 24.8924311848 1.39752673693
5161 1 43.9726701372 22.9090439544 1.79700271535
5118 1 44.3285224097 25.1732672386 3.09968172163
5158 1 42.4833498023 23.1206490399 3.63861673791
568 1 3.0985215801 25.8344901934 0.873321111802
563 1 2.93230658866 27.6333756068 2.99689447056
197 1 1.38288395185 27.3787279474 0.99170076194
526 1 4.43910809026 25.6662893238 2.86390097916
525 1 4.45229866896 27.8402811624 1.08175930212
853 1 7.21136234435 27.9016626658 1.00421371677
854 1 7.2327683571 25.6788430087 2.81274120611
891 1 5.85479825222 27.6601128307 3.04284642616
896 1 5.83078991049 25.8707567975 0.815400318202
1181 1 9.97614361768 27.942548977 0.983177987487
1182 1 10.0033154601 25.7125857276 2.77740122027
1219 1 8.61412758884 27.7077314117 3.01188314015
1224 1 8.59040554066 25.91521307 0.765319673919
1552 1 11.3710781253 25.9472702753 0.749404488
1547 1 11.3887167325 27.7312421649 2.99418018431
1509 1 12.7627581906 27.9697287155 0.98342590666
1510 1 12.7773308131 25.7288260688 2.76001004753
1875 1 14.1688530996 27.7439119459 2.98667615434
1880 1 14.1616194105 25.9661137364 0.755328060775
2166 1 18.4160912941 25.6690276176 2.89299000113
1837 1 15.5845904594 27.9808622334 1.01872624596
1838 1 15.5664694559 25.7470263079 2.75269522893
2165 1 18.3160158755 27.9883683178 1.05234581075
2203 1 17.0460928013 27.7319678034 3.03462169287
2208 1 16.9865505191 25.9644161757 0.792397571895
2536 1 19.6639593255 26.046030795 1.01264598513
2589 1 20.0524944262 27.4251470358 3.28749190333
2814 1 20.7428966763 28.6512069548 1.49456641656
2551 1 21.8591409528 26.635250087 1.23593028573
2487 1 22.8482625566 27.2511701 3.32719653165
3186 1 25.8473830356 28.8226509254 1.07192117075
3251 1 24.5097023603 26.8149883832 1.42051014455
3187 1 25.854455871 27.1039772383 3.35198093059
2851 1 23.0809671606 28.8369536323 1.18196172114
2488 1 24.398293749 29.0852943136 3.17048332537
3149 1 27.2695211455 26.8236599718 1.32812347287
3471 1 30.084853373 29.0515801891 3.0200730688
3477 1 30.0494872193 26.8101846482 1.26346612368
3514 1 28.6528370478 28.8398846827 1.04286073498
3515 1 28.6826332833 27.0585526619 3.29512084296
3143 1 27.2713200517 29.0606206611 3.06469074412
3799 1 32.8785734153 29.0421769433 2.98884464954
3805 1 32.8146264868 26.8579383033 1.23190106224
3842 1 31.4440865169 28.8420411134 1.00463670624
3843 1 31.4698360031 27.0278894457 3.24923558419
4171 1 34.2505053293 27.033358562 3.22930346144
4170 1 34.2584563038 28.8538314781 0.996962131997
4127 1 35.6640959379 29.0520969454 3.01140410906
4133 1 35.6505794119 26.8735304277 1.22434417533
4498 1 37.0678813988 28.8459567499 1.01865556261
4499 1 37.019624037 27.049332412 3.23709321505
4455 1 38.4871373168 29.0359224771 3.03639700682
4461 1 38.4200803022 26.8262379532 1.24097746993
4789 1 41.2731043501 26.8639573733 1.226672832
4826 1 39.8585078903 28.822737647 1.01803510538
4827 1 39.8457535112 27.0378363489 3.23095078804
4783 1 41.2661549327 29.0137330473 3.0378376886
241 1 45.6462620177 27.3021494382 3.04444619832
240 1 44.0717583932 26.9712322218 1.15866172987
5154 1 42.6455692484 28.9324319099 1.08938166355
5155 1 42.7640246603 27.0925105147 3.18954907063
289 1 45.3403784348 29.0360764747 1.05204582548
235 1 44.120017157 29.2434692941 3.09992260454
191 1 1.21982702384 29.3459171919 3.01399626797
293 1 2.99741043117 29.6788446121 1.26465365385
227 2 1.14740494982 30.9086180905 1.08014611029
555 1 2.89704240849 31.5277908311 3.15668387353
234 1 0.0382654701292 31.3924543154 2.98418680727
518 1 4.54696510542 31.8922925789 1.42375014437
519 2 4.53234951049 29.6568771945 3.25724588081
846 1 7.21495686348 31.9370864368 1.43550702795
847 1 7.23438051976 29.7046912747 3.23932710093
890 1 5.85114855514 29.8800638581 1.24542574146
883 1 5.83834550541 31.7063877348 3.45269522071
1174 1 9.96817318699 31.9822416173 1.43059334785
1175 1 10.0002321344 29.7353914287 3.21871279021
1218 1 8.5886037152 29.9404800309 1.21195346864
1211 1 8.61229835196 31.7398409315 3.43856928687
1539 1 11.3750418414 31.7684161259 3.4359697054
1546 1 11.3615793223 29.9727745668 1.20812393369
1502 1 12.7484778413 31.9936660026 1.4399866942
1503 1 12.7721015838 29.7509056313 3.21257516193
1874 1 14.1630027957 29.9919749706 1.21754387098
1867 1 14.1656947208 31.7551145557 3.42780418868
1830 1 15.5683477286 32.0191979918 1.4510395293
1831 1 15.5952812596 29.7296681232 3.20638652828
2158 1 18.3039362958 32.0672019278 1.49693575939
2202 1 16.9320033346 30.0254678402 1.24123189483
2159 1 18.5976137351 29.6268168438 3.18636220257
2195 1 16.99125669 31.6938343822 3.45281425716
2530 2 19.3142165927 30.1562528148 0.880681905426
2486 1 21.0335210478 31.7215629178 1.49988039903
2843 1 21.6199450719 29.7078592272 3.52673077491
2703 1 22.0928069723 32.5558945298 3.60982539048
2806 2 23.2571307885 31.0122384447 2.45747434962
2815 1 25.8469448694 31.0239165918 2.892418714
3179 1 24.4769275827 30.8219122868 0.598603097982
3178 1 25.8812934878 32.8304198156 0.609439375872
3142 1 27.188348147 30.8193417534 0.786564467549
3470 1 30.0469668305 30.8471024592 0.784193787659
3507 1 28.6740160156 31.0455734385 2.79984914001
3506 1 28.6169675379 32.8218429054 0.572192077149
3798 1 32.8706415105 30.8496179295 0.774122346761
3835 1 31.4932685538 31.0551962162 2.77067712726
3834 1 31.477172721 32.845812353 0.571832105031
4163 1 34.2889808479 31.0617359594 2.773301506
4126 1 35.6911042572 30.8498696487 0.788186197902
4491 1 37.1048670704 31.0455664886 2.79825278441
4162 1 34.3046797603 32.8537632284 0.588441095065
4490 1 37.1004126925 32.8525948806 0.582222227978
4454 1 38.4920170463 30.8355861157 0.794189304669
4782 1 41.218205224 30.8344837979 0.73675837974
4819 1 39.9095948977 31.0230045253 2.8244625586
4818 1 39.8182099195 32.8501898945 0.530249815775
5111 1 44.1834823228 31.0994492513 0.861526832684
5147 2 42.4820151804 31.1150844465 2.67976094042
5146 1 42.5271328286 32.8318402342 0.509393439196
181 1 1.74021748576 35.8202773035 1.96498277801
226 1 1.60648616233 33.5785928023 3.41138000876
554 1 3.10450686509 33.8832831267 1.60196655759
190 1 0.449240727431 33.3381566513 0.883790056191
82 2 0.105904406939 35.8513568022 0.318698302804
509 1 4.4736373791 35.9124980459 1.88722426736
837 1 7.17711415956 36.0061938869 1.87191235128
882 1 5.85261217669 33.9368974165 1.6870422001
510 1 4.38017780021 33.6273737463 3.63688414472
1165 1 9.98146717934 36.0241682056 1.85513158958
1210 1 8.58226873594 33.9965054806 1.64629185425
1538 1 11.349328076 34.0156855918 1.6701554548
1493 1 12.7430106317 36.0321726424 1.88996354526
1866 1 14.1342059063 34.0214975175 1.68283375082
1821 1 15.5072293418 36.0382006979 1.82994423697
2149 1 18.305634454 36.0925322113 1.83984331803
2194 1 16.9129296797 34.0516932385 1.61910365914
2150 1 18.2739206746 33.7127168275 3.59687468906
1822 1 15.5659735396 33.7497342346 3.63495885512
2706 1 22.7301884766 36.4845678705 0.341245693048
2522 2 19.5417685845 34.0727547302 1.51377273556
2378 1 19.9814569398 36.2889438063 0.0883084637917
2913 1 21.3413155662 34.2082678905 0.0187001441107
2850 1 23.1881605418 32.9438445523 0.980621307539
2836 1 24.60957922 33.021179953 2.80508541254
2798 1 23.0987573633 34.8572702093 2.3029341085
3170 1 25.9127073552 35.0019090691 2.39848164653
2842 1 24.4542091767 34.8022779237 0.342702463581
3462 1 30.0985190765 33.0400913425 2.57965537664
3134 1 27.2634745238 33.0115894252 2.67017135316
3133 1 27.2505938541 34.8230442074 0.365843337777
3461 1 30.0604112336 34.8203570345 0.353458923646
3498 1 28.7004174561 35.0011655588 2.38725337989
3790 1 32.9156989017 33.0704465454 2.59201975878
3789 1 32.9062047286 34.84957335 0.376527736695
3826 1 31.5056124417 35.056222724 2.37110082699
4154 1 34.3325943243 35.072686912 2.39633269243
4118 1 35.7261627177 33.0641806753 2.61360445083
4117 1 35.70365061 34.8628082141 0.369590115269
4482 1 37.1147115825 35.0709549241 2.39723370875
4774 1 41.1431293227 33.0892820911 2.54655869141
4446 1 38.50861514 33.0465022168 2.62739870188
4810 1 39.8004559343 35.0919249605 2.34762017662
4445 1 38.4597051807 34.8751092779 0.328751406156
4773 1 41.1878349384 34.8545058533 0.304854858333
5110 1 43.9227885789 33.0252086629 2.45038625654
247 1 45.1706308834 35.0112571264 2.41280805657
5138 1 42.5230435021 35.0986729942 2.32034962296
5101 1 43.8770935999 34.7693801779 0.324932661965
78 1 0.461181980748 3.15625257162 4.16262961408
40 1 3.0887725273 3.19610938502 4.20652047208
540 1 3.16576986258 1.08651027244 6.15096025856
174 1 0.705265163405 1.08227215221 6.20053522392
402 1 1.82310543296 3.17749831119 6.17619577973
406 1 1.75962755975 1.16015059037 4.01576865417
407 1 4.35049080371 3.14608685815 6.37246316558
368 1 4.52996003899 1.20369739567 4.16240630092
692 1 7.14675694145 3.0916002229 6.35564979485
696 1 7.14767015429 1.25654270963 4.10212851721
735 1 5.81064299386 1.05468849404 6.16974388158
734 1 5.75129004858 3.29795036064 4.33302735325
1020 1 9.9500128012 3.03114778322 6.34253603931
1024 1 9.95609656126 1.26187075767 4.11765234987
1063 1 8.55085227018 1.04636979844 6.12341335366
1062 1 8.56587087226 3.29118578337 4.34780988896
1391 1 11.3725654729 1.03637809565 6.11596445713
1390 1 11.3568413286 3.27251371592 4.35631288674
1348 1 12.8104390024 3.01090415437 6.33498854601
1352 1 12.7679487693 1.26204910081 4.11458474619
1719 1 14.2002454709 1.02999734975 6.10073259277
1718 1 14.1938580729 3.26372529579 4.33783711156
1676 1 15.6360212065 3.03631603327 6.34287905151
1680 1 15.6010203494 1.26300423388 4.10319860973
2008 1 18.2639440161 1.19049772294 4.06193959786
2047 1 17.000463091 1.00895520718 6.13612090871
2369 1 18.3964030508 3.04899591266 6.38450194083
2046 1 17.0271675272 3.29108756019 4.32299825665
2333 2 22.0601378531 0.70568881892 6.07944102546
2698 1 19.7626243604 1.08923285674 5.98740193839
2697 2 19.5668463134 3.02493830758 4.29768460865
2662 2 22.6458843866 3.16823973622 4.53971214867
2325 1 21.8850224207 3.05512701431 6.95545370369
2701 1 24.6901116638 2.60123187534 3.97149102767
3033 1 26.0494014465 0.645077665228 4.17601301028
2704 2 25.0002050844 1.18790419227 6.12616259511
3030 1 26.1446908345 3.03605636226 5.92534676209
2991 1 27.425446495 2.68029277092 3.91596579389
2992 1 27.4146829151 0.911415422743 6.20825822846
3319 1 30.091571276 2.68400358099 3.96026623911
3320 1 30.145916864 0.925450311249 6.20894410602
3358 2 28.7471644445 2.92146281455 6.00615243154
3361 1 28.7203473264 0.64252830908 4.20193563934
3647 1 32.8924864823 2.7209043887 3.96466059028
3648 1 32.9331623177 0.952723219981 6.20324530934
3686 1 31.489465856 2.93354538866 5.96968782644
3689 1 31.5078080547 0.720230578633 4.18317751034
4014 1 34.3010085829 2.96612004278 5.98354016775
4017 1 34.3391563845 0.736180382022 4.19913568063
3975 1 35.7135229208 2.77149648938 3.98479779124
3976 1 35.7273629147 0.965139955822 6.2405301043
4342 1 37.0924148185 2.97494199737 6.00636841799
4345 1 37.1180145876 0.755644745062 4.21737505144
4303 1 38.4624670151 2.82051142788 3.9892135747
4631 1 41.1765487303 2.86453447421 3.948580602
4304 1 38.511650079 0.98176162358 6.25405659579
4632 1 41.1724297722 1.08756301288 6.21189027788
4670 1 39.8774423711 3.0573246962 6.01550110696
4673 1 39.807629639 0.810554598492 4.18730156166
218 1 45.0744167184 0.924125756859 4.06871879154
79 1 45.0011116786 3.1647691713 6.19777113135
4959 1 43.8262729757 2.95631175319 3.86307683452
4998 1 42.589440292 3.12186745493 5.97340023142
5001 1 42.5297121566 0.858069632391 4.11141083855
37 1 43.8512049567 1.08744961132 6.18331768644
401 1 1.51697348019 5.14262986208 4.62016389346
400 1 2.8022425642 7.24163284979 4.93153882528
30 1 2.62390813242 5.23195700478 6.94582615324
72 1 0.0584904935178 7.17050277899 5.01916095239
73 1 0.0789310710884 5.29741699859 7.21272635912
363 1 4.24116905411 5.2693829241 4.64753417882
691 1 7.12841667458 5.25540944065 4.59789074251
729 1 5.67565901098 5.12178539341 6.60894818236
685 1 7.15646881197 7.05194856641 6.80334090003
357 1 4.23877820105 7.12301834899 6.87976442188
728 1 5.68988110549 7.24538536885 4.84140841028
1019 1 10.0011467552 5.30267476781 4.58664716144
1057 1 8.57924802216 5.0613722283 6.55804376775
1013 1 10.0344234942 7.00482443647 6.69630164014
1056 2 8.43728792952 7.23576411839 4.78169319334