ITEM: TIMESTEP
42000
ITEM: NUMBER OF ATOMS
5248
ITEM: BOX BOUNDS pp pp pp
0.0 45.68
0.0 36.5618393957
0.0 36.5618393957
ITEM: ATOMS id type x y z
409 2 3.38634064327 1.16067575966 2.29170487695
39 1 2.03547529017 2.82063701175 1.92486517137
697 1 7.18881377932 1.71562056685 0.132909587469
737 1 5.838567695 1.43288064087 2.10426814816
695 1 7.21806187596 3.45101616056 2.33423030573
367 1 4.42874709233 3.4503510389 2.27798548569
369 1 4.22503236936 1.83016623635 0.154395161757
1065 1 8.63310806587 1.45057866417 2.11353362872
1023 1 10.107131875 3.42019383946 2.34116310613
1393 2 11.3873340011 1.17984570924 2.07204627576
1025 1 9.99825264911 1.65020577099 0.121225241516
1064 1 8.64551099115 3.6556177813 0.376627243145
1353 1 12.7756588887 1.63452690167 0.12104863359
1721 1 14.1258494425 1.41432238694 2.1177062846
1351 1 12.6474332434 3.387101952 2.32802168634
1720 1 14.1443316861 3.61616235161 0.373418561384
1681 1 15.6081725731 1.63999398232 0.17305379897
2049 1 17.0636503468 1.37846726096 2.16982219169
1679 1 15.563541269 3.3411620824 2.33457425796
2007 1 18.612288568 3.26865190287 2.29443574882
2009 1 18.5077433677 1.65699999751 0.191851619835
2048 1 17.0453466202 3.6139151733 0.371010204808
2377 2 20.8886329274 1.90610112003 2.94984731123
2337 1 21.3038371407 1.91343602565 0.231079867451
2706 1 22.774948415 0.0310565523575 0.258262558186
2336 1 23.0168748739 2.3447201971 2.15515054968
3032 1 25.8004320412 2.54169073019 1.97596529128
2665 1 24.4536604064 0.506122638029 2.24117728952
3034 1 25.8005296444 0.274176952918 0.17571039335
2731 1 24.2845225346 2.05551905804 0.0539347711722
3360 1 28.6188053692 2.57691028159 1.94967751044
3321 1 30.0206455283 0.562292433739 2.16454696639
2993 1 27.2288238937 0.579576567252 2.19099412181
3362 1 28.5917064308 0.314616548171 0.159721439626
3649 1 32.8123680773 0.549203104317 2.19223453536
3688 1 31.4179205609 2.56600639478 1.95865830295
3690 1 31.4154426153 0.314795290843 0.167616025046
4018 1 34.21000915 0.295358183808 0.190599354073
4016 1 34.2181207241 2.56068477303 1.9791463044
3977 1 35.592936532 0.535923764384 2.19485526348
4344 1 36.9432135295 2.57586700031 1.97137149368
4346 1 37.0000456522 0.277806663847 0.193869127583
4305 2 38.1912806418 0.634485838959 2.25502055671
4672 2 40.9380895905 1.86875537165 2.15283979045
4674 1 39.9439721631 0.149621008393 0.312003264219
4371 1 38.4246900334 2.23199137877 0.0195973010052
81 1 45.5154323456 2.11390552813 1.93804499748
5000 1 43.1030472429 2.03392955987 1.96994400402
36 1 3.13297172561 5.51413249854 2.41341791128
77 1 0.939439455622 4.82046600357 2.06641174176
408 1 2.73027466747 4.06325429123 0.0808514367962
35 1 1.36672309483 6.20931749563 0.152377568766
736 1 5.73703813445 3.70674316837 0.306885590957
366 1 4.36809937596 5.74299587968 0.437605983776
694 1 7.20990192712 5.6539318422 0.594856400161
733 1 5.7639907522 5.44882876345 2.58313572603
1392 2 11.3946202815 3.65835688735 0.148809485439
1022 1 10.0204268604 5.64039027615 0.592343608457
1061 1 8.66386813452 5.41230620425 2.60373976299
1389 2 11.3951034265 5.61750472465 2.5985459666
1350 1 12.7942494825 5.62309383537 0.573477809492
1717 1 14.106080628 5.32221433339 2.5793324069
1678 1 15.5863817922 5.59223361318 0.573921941107
2006 1 18.3844352933 5.64242983447 0.547044261141
2045 1 16.9880106318 5.25468401581 2.56374295687
2002 1 18.2369664649 7.25968560465 2.86432698445
1674 1 15.5425174356 7.28941123603 2.80341318995
2335 1 21.4517424129 4.06817271042 2.2047396672
2376 1 19.8902278679 3.83631156094 0.210138676948
2373 1 19.6763514651 5.47506514574 2.54596286115
2387 1 21.3575097792 5.81105128604 0.363991901397
2759 1 21.7668986715 6.72386086409 2.73056627727
2767 1 22.729606599 3.83522055236 0.0465124505252
2663 1 24.3552286593 4.41614352566 1.8017034132
3028 1 25.7570908792 6.64832529321 1.4281848936
2695 1 24.4262757084 6.93656708723 3.42674066649
2986 1 27.1876882117 4.5997878837 1.75250991088
3318 1 30.0085137968 4.58275415516 1.7367713032
3356 1 28.5890526202 6.60780180289 1.52769542126
3314 1 30.0128089824 6.80581300117 3.53632212841
3023 1 27.2229813828 6.71344760391 3.49716025299
3646 1 32.8113076495 4.57150465783 1.75007223006
3684 1 31.3923762136 6.58591228516 1.534445984
3642 1 32.7897113341 6.82856687068 3.53664315566
4012 1 34.1923193741 6.58227640442 1.53735449206
3970 1 35.5873707018 6.83789408653 3.54157791762
3974 1 35.5991656218 4.58630976303 1.75349828304
4340 1 37.0131843118 6.55738517795 1.57354739113
4302 1 38.3985832988 4.47244143549 1.74451306742
4630 1 41.1173512382 4.33503051212 1.75595665919
4668 1 39.6926775594 6.5300904857 1.59126785964
4626 1 41.1030434784 6.92401808459 3.56610591131
4958 1 44.0432817806 4.28262908961 1.84549478151
4996 1 42.5296778436 6.41485980442 1.67981775862
4954 1 45.1151164177 6.48676398807 1.7296082126
4997 2 42.2670591578 4.93904017434 3.64941892317
80 1 45.6369522962 4.07030408723 36.5713704331
70 1 1.53994337448 7.43640908688 2.80712655129
404 2 3.14726673684 7.74649426438 0.938941679761
38 2 0.767365733298 9.94454127585 2.04957226228
392 1 2.98100894162 9.47524837055 2.9306166185
362 1 4.49358976064 7.53202518897 2.79751537625
361 1 4.51706622054 9.73821971767 1.04346083567
689 1 7.25117319523 9.67632518654 1.02674730187
690 1 7.21697430609 7.44115650255 2.8146538159
727 1 5.8527048272 9.500811087 3.0481351013
732 1 5.83995428072 7.68460625909 0.786681430409
1017 1 10.0493860756 9.62672147657 1.04600091805
1018 1 10.0075259849 7.46797620839 2.83517013542
1055 1 8.63059207749 9.45565360659 3.04492815399
1060 1 8.63690363743 7.64813011403 0.818066607215
1388 1 11.4258158552 7.63455731692 0.81989188562
1383 1 11.460099549 9.44461359109 3.06240552853
1345 1 12.8484841118 9.61456876179 1.03300821447
1346 1 12.8335637574 7.43817701499 2.81713428643
1711 1 14.2554822114 9.42210860506 3.03113350629
1716 1 14.2094216407 7.61500194544 0.79537303433
1673 1 15.6234582163 9.64637216792 1.02561226785
2039 1 16.9070965025 9.25284650729 3.07134192195
2044 1 16.982585487 7.60922032569 0.809355006792
2001 1 18.332195661 9.60292426949 1.11615156199
2366 2 18.372682083 10.841768924 3.42684387463
2334 1 19.7873789843 7.57642711924 0.952210139513
2367 1 19.9830176784 8.83875148771 3.4126634377
2329 2 20.6058563186 9.84013149875 1.60199290367
2323 1 22.4162973608 9.16350093281 3.34106107441
2722 2 23.5421413926 7.9763335371 1.61942560444
2059 1 24.5805800902 9.80484836795 2.35968769024
3022 2 25.8715361295 10.7122306097 0.779428660918
2657 1 26.0840481505 8.64539765959 3.55953528666
2979 1 27.1786417325 10.7687168521 3.0211834277
2985 1 27.1417804658 8.63218660402 1.3011872378
3307 1 29.9394111332 10.8342282582 3.08669129511
3313 1 29.9712551609 8.58967220213 1.29689495171
3350 1 28.5779898695 10.5906479536 1.05580651089
3351 2 28.612215069 8.79131597435 3.34320843682
3635 1 32.7452080549 10.8334567195 3.09270480583
3641 1 32.7683483016 8.58721502365 1.30686245742
3678 1 31.3515165345 10.5919405542 1.08513505338
3679 1 31.3629205103 8.83037400889 3.30867060821
4006 1 34.1642109263 10.585591553 1.09484572986
4007 1 34.169605737 8.83078967809 3.30781835108
3963 1 35.5537349092 10.8301618891 3.10296186738
3969 1 35.5916381893 8.570628966 1.32435317351
4334 1 36.9408792019 10.604005445 1.10942801062
4335 1 36.9590687295 8.83622777051 3.31538456077
4291 1 38.3416023696 10.8289869975 3.11873946247
4297 2 38.3362123011 8.65226319689 1.2365580498
4619 1 41.1831373453 10.7156317896 3.18094756944
4625 1 41.1824694158 8.45316761104 1.43458414983
4662 1 39.791937505 10.5111839004 1.15638017147
4663 1 39.7007907239 8.82556295331 3.3226417372
71 1 44.1769049682 8.70354551672 1.4330535951
4953 1 42.546431112 10.4185179768 1.2009755659
4991 1 42.6810339386 8.80260030712 3.3554395393
33 2 44.9703653344 7.84944984621 3.64407346235
398 1 2.86118336196 11.5738159859 1.13847061514
399 1 1.53131214322 11.6749187833 3.22657471218
391 1 3.02487653147 13.5500591639 3.32476872547
453 1 1.74278651686 13.8671534993 1.23492321129
129 1 0.280289675102 12.012699486 1.07161728505
63 1 0.195467222124 13.6456895082 3.23759714594
354 1 4.47912899186 13.6371683236 1.38662602023
355 2 4.38526145094 11.5058637563 3.18444175749
682 1 7.34557740964 13.6502027124 1.47171710142
683 1 7.26512889023 11.4794766258 3.2410002162
726 1 5.87993203273 11.6858554942 1.2235034867
719 1 5.86698780222 13.4852734592 3.42225623485
1010 1 10.1145334423 13.6451584852 1.43659919835
1011 1 10.0618613756 11.4434775962 3.28729179707
1054 1 8.7092719711 11.6527813681 1.24696052423
1047 1 8.7052867326 13.4568097066 3.45358748188
1382 2 11.4732204401 11.536000236 1.35869094817
1375 1 11.5002773287 13.4371857099 3.44281518749
1338 1 12.864445923 13.6554828501 1.42882005589
1339 1 12.9099250122 11.4323518128 3.30536246651
1710 1 14.2144975449 11.6300016059 1.25069591618
1703 1 14.2763606104 13.4311685758 3.44326125301
1666 1 15.5062226118 13.704685258 1.30332730528
1667 1 15.7236468712 11.4169005589 3.30946442474
1994 1 18.3897182521 13.8523848766 1.21866762397
1995 1 17.0419122633 11.6855484696 1.29239085973
2031 2 16.7878782983 13.6123645783 3.08160625802
2359 1 19.6070408119 11.8073370557 1.28096016103
2678 1 21.3628806752 13.543985265 1.18136654071
2421 1 22.3676174497 11.2553159369 1.41099310868
2679 2 19.9340536368 13.5465335796 2.94562389308
2680 1 22.432227649 13.4017593242 3.38090987975
2688 1 20.9436004724 11.3637192101 3.42319674383
2643 2 23.4893224187 11.3393534098 3.59541295374
2694 1 24.3707430889 12.5707413525 1.60827636687
2642 2 26.1867331965 12.9519194895 2.90735591851
3014 1 25.7950957901 14.5798240189 0.692328517237
2978 1 27.1597993097 12.5984181659 0.785808162135
3306 1 29.9470284184 12.6028757044 0.868615276422
3343 1 28.5681276017 12.8247043443 2.87972109312
3342 1 28.5688091228 14.6073067434 0.596798902103
3634 1 32.7510031208 12.6022386749 0.877195493029
3671 1 31.332875806 12.8369702601 2.89084170927
3999 1 34.1296708821 12.8447809429 2.89110642408
3962 1 35.5475672122 12.6054558106 0.893385940621
4327 1 36.943893932 12.8362270991 2.90694159562
4326 1 36.9645642516 14.5955955277 0.710963816018
4290 1 38.3800324491 12.5600092182 0.932057008269
4618 1 41.101279044 12.4640543452 0.926660123718
4655 1 39.7941347205 12.7724669258 2.96139558315
4654 1 39.7813706928 14.5584176123 0.742405202201
4946 1 44.3656222593 11.0681500473 3.02455062795
125 1 45.0395598531 14.3398683063 0.897442450421
4938 1 42.5016931421 12.6561045778 2.97637079704
4990 2 43.6667475446 12.3237469335 0.744192621823
4982 1 42.386161167 14.5098555322 0.733056562961
27 2 43.5139249971 14.6108535109 2.74040072598
26 1 3.22229867983 15.705710972 1.51718321173
382 2 2.23415140358 17.7522464519 1.73768083967
62 1 0.665406363648 16.3752077727 0.944837164844
390 1 1.7475046655 15.6395458787 3.40409374022
18 1 0.624562120614 17.9025598944 3.36016710342
345 1 4.61499314243 17.7101973308 1.79145723712
673 1 7.35469005209 17.6816643323 1.82685476562
718 1 5.95295482427 15.6545026616 1.71827563976
1001 1 10.101118165 17.6946216018 1.79661056526
1046 1 8.7446260196 15.6608151306 1.63553988853
1002 1 10.1129335393 15.4461974742 3.65264162669
1374 1 11.4752302721 15.6644325564 1.60160420563
1329 1 12.7996075317 17.7250383259 1.78416684801
1702 1 14.1621108772 15.7352189771 1.55551084749
1330 1 12.8908942057 15.4528704787 3.64350592913
1657 1 15.631187302 17.7330994532 1.80738605164
2030 1 17.0222046603 15.8052098908 1.57504433157
1985 1 18.7309061497 17.8579156378 2.16948024682
1986 1 18.3909963712 15.5584075415 3.50622664564
1658 1 15.5481115817 15.5289183488 3.5428994168
2869 1 19.8553401004 15.7316878395 1.43244302435
2351 1 21.5695871237 18.0086231443 1.84295950732
2360 2 22.0343012592 15.7233527824 2.54597688717
2866 1 23.4649225061 14.7167682893 1.13689295512
2824 1 24.3931073988 14.9145090025 3.35991947893
3006 1 25.6718765216 16.6555696368 2.1077631689
2641 1 24.3963695746 16.5401198941 0.0182156515246
2970 1 27.2174952489 14.9015737284 2.68314063373
3298 1 29.9250970172 14.8235398831 2.67081996102
3297 1 29.9932708203 16.5910269945 0.374551513649
3334 1 28.6147877554 16.8403194444 2.27662801985
2969 1 27.1646018804 16.5557254083 0.270735848407
3670 1 31.373064379 14.627902889 0.657686438954
3998 1 34.134394666 14.6313880691 0.665634737081
3626 1 32.7241046804 14.8694887493 2.67271173648
3625 1 32.7711234111 16.6650454831 0.441930703755
3662 1 31.3151680141 16.8688632737 2.43732522419
3990 1 34.1219992115 16.8687488149 2.45612048271
3954 1 35.5186729975 14.8474240112 2.67945332272
3953 1 35.5481395594 16.5931624771 0.48403882012
4318 1 36.9458364077 16.8159831439 2.49727730038
4282 1 38.3748734828 14.8079114844 2.73518054096
4610 1 41.1031464167 14.7703904709 2.77969164451
4646 1 39.7886224797 16.8119942277 2.58097996575
4609 1 41.1494484933 16.6048479458 0.584341434468
4281 1 38.3791224302 16.5868956477 0.536143467152
4974 1 42.5327414071 16.8185325055 2.6947553135
4937 1 43.8171242818 16.4900696466 0.766664743836
49 1 45.0289842149 16.05940289 3.10816983679
573 1 3.25305211487 19.7716486296 1.96513247059
244 1 1.89924960654 21.7380904061 2.18933631937
205 1 1.41820432458 20.0633039835 0.242736622632
572 1 3.07295907521 21.8717349176 0.127852528617
901 1 5.95976181065 19.6958287268 1.99670120867
859 1 7.31347846782 21.745054179 2.19613980376
531 1 4.66552420988 21.702965663 2.1738883443
1229 1 8.69599833378 19.7197660437 1.99480203616
1187 1 10.0415580016 21.7543890657 2.18836468657
1557 1 11.4320276176 19.7420657394 1.98955652644
1885 1 14.2205068602 19.7321911291 1.98603952373
1515 1 12.8335833812 21.7476235098 2.19181092187
2213 1 17.1037519586 19.687913294 2.02374646631
1843 1 15.6644114165 21.707767591 2.19846201562
2171 1 18.3905465487 21.7458468764 2.12368275139
2173 1 18.5422873937 19.9400507877 0.0618970739487
1845 1 15.66724165 19.9392193131 0.00610702459208
2828 1 20.0659945432 20.0202671065 2.04234405932
2541 1 21.2874276942 20.0936354591 0.0147633235574
2313 2 24.1314700774 18.4455745694 1.82881179572
2868 1 22.8896524059 20.4593822869 1.95038403515
3196 1 25.6341529523 20.6418914887 2.09750214297
3198 1 25.7743677019 18.5288459763 0.124668933638
3157 1 27.0682663587 18.7748135653 2.27197941997
3485 1 29.9252291857 18.9024445474 2.29325311335
3524 1 28.4706556807 20.8360758097 2.11123313577
3526 1 28.5365362897 18.5731369497 0.275260218548
3551 1 29.9262777359 20.6205318753 0.109163910475
3223 1 27.1290356414 20.5260792508 0.0834740667594
3854 2 31.2213726543 18.6329854404 0.279885737395
3813 1 32.7199609831 18.8616179009 2.27795374625
3852 1 31.344024663 20.8714289151 2.10867236668
4180 1 34.1528668221 20.8444100847 2.12031723646
3879 1 32.7608251231 20.5882371642 0.126102062672
4182 2 34.3080984498 18.7039279108 0.394676134347
4510 1 36.9615152081 18.5801486595 0.324089647979
4141 1 35.5719274888 18.8375726103 2.34430758228
4508 1 36.9725446771 20.8318134884 2.13884750214
4207 1 35.5816967165 20.6192451431 0.114735371548
4797 1 41.173213769 18.8127478949 2.4173803494
4469 1 38.3667938426 18.8148537901 2.34947538403
4836 1 39.7638295803 20.8142678496 2.1443376618
4838 1 39.77403549 18.6135035417 0.361695443125
4863 1 41.1747828287 20.6301189521 0.133796704878
4535 1 38.3362562723 20.5858714211 0.118662246799
246 2 45.1162493043 18.5549208751 0.318151091191
245 1 45.5147625344 20.5446344479 2.20058184432
5125 1 44.0539624199 18.6981341674 2.54715211491
5164 1 42.5501354386 20.7578281426 2.14683421023
5166 1 42.5576429156 18.6159550157 0.451054908131
5191 1 44.0340630992 20.6394614747 0.223867510263
569 1 3.38639499024 23.7339855575 2.47475575336
627 2 2.12965818401 23.8715563094 0.701685655656
5122 1 0.427159442047 23.6383111218 2.1367292318
5190 1 0.188785823513 22.3041607324 0.0719976139266
900 1 5.9276855744 21.9632802609 0.163778828273
530 1 4.54904275857 23.9454277238 0.357395238935
858 1 7.25566909391 24.0029261087 0.38976344259
897 1 5.91693122437 23.7644881572 2.4005362995
1228 1 8.64032099425 21.9889246439 0.143661468682
1186 1 10.0154089136 23.9894437519 0.380812210771
1225 1 8.65434099635 23.7714988773 2.41611778097
1556 1 11.4185745652 21.9747099285 0.164986741987
1553 1 11.4338849055 23.7542793362 2.41371568281
1884 1 14.2414726434 21.9461344921 0.183198137348
1514 1 12.8351440163 23.9577938 0.403231100081
1881 1 14.2583221452 23.7303911737 2.43800078497
2212 1 17.0772984282 21.979789442 0.15930813501
1842 1 15.636712056 23.9454774885 0.3865344241
2170 1 18.5107775246 24.1083405434 0.328017476177
2209 1 16.9750329632 23.7451331264 2.41493145536
2540 1 19.8707895371 22.0780575783 0.145026203881
2495 1 19.5875883521 23.7392002437 2.46940838006
2494 1 21.3824509535 22.2623778183 2.03704502077
2537 1 21.3104347303 24.0862353497 0.161034264159
2923 2 23.1207735701 24.4174295672 1.51433926929
2826 1 24.3258458026 22.4613478728 1.63684231383
3192 1 25.6110517125 24.799076301 1.56728413047
2859 1 24.283734022 25.5139948083 3.4839021018
2860 1 23.1128779536 23.2736171965 3.45891213806
3154 1 26.9829558053 22.8013945021 1.95559028421
3482 1 29.9120833659 22.8292325562 1.89767787285
3520 1 28.514332161 24.7924079499 1.67538214135
3150 1 27.0974192523 25.1018127722 3.65135325084
3810 1 32.7777667569 22.8480653425 1.89898571832
3848 1 31.367491748 24.831201495 1.67465686033
4176 1 34.19608393 24.8631147862 1.66638151938
4138 1 35.5713246058 22.8441739509 1.90826438569
4504 1 36.9528503088 24.8520429752 1.65474967737
4462 1 38.3814162744 25.0760916629 3.6179124909
4466 1 38.3281127083 22.812150034 1.8587057144
4794 1 41.1084830857 22.7724031699 1.77633593719
4832 1 39.6648036355 24.7926562753 1.57590933139
4790 1 41.0497617587 25.1662135591 3.50007069217
5160 2 42.3878753505 24.7680006259 1.51401622801
5161 1 44.0329633885 22.5539242947 1.8222563059
198 1 1.84067852477 25.6441895448 2.73633129483
568 1 3.28553777893 25.9970324024 0.724727812875
563 1 3.06831389754 27.6930791158 2.88989484283
197 1 1.54820223736 27.7796723599 0.976036148975
241 1 0.116949398148 27.6878839159 3.12681053351
526 1 4.57340436501 25.8046305466 2.7490157424
525 1 4.47993656935 28.0565578981 0.95107119591
853 1 7.21456088416 28.0131476863 0.887449527006
854 1 7.27657396042 25.7870338365 2.64821815294
891 1 5.87396495306 27.8166004396 2.93206324696
896 1 5.83953153172 26.0069533614 0.660986734036
1181 1 10.0392283884 27.9744507525 0.886562632619
1182 1 10.0383815439 25.7638020843 2.65438801979
1219 1 8.6540982014 27.7719918202 2.89861135363
1224 1 8.61360105816 26.0039546994 0.619548747262
1552 1 11.4287497603 25.9669254239 0.63564488785
1547 1 11.4458846696 27.7500069319 2.91136914848
1509 1 12.8218368609 27.9639856822 0.885050709213
1510 1 12.8419774369 25.7369385269 2.66868516622
1875 1 14.2085962983 27.7468927798 2.90905606875
1880 1 14.2227598361 25.9539238515 0.640755847047
2166 1 18.279293743 25.7434650198 2.86146420145
1837 1 15.6219783871 27.9488933425 0.922374156199
1838 1 15.6104824308 25.7572905334 2.68856283053
2165 1 18.4986679406 27.805134896 0.943752482728
2203 1 17.0599413149 27.7609706649 2.95608419262
2208 1 16.9378595631 25.9511590661 0.656066856983
2536 2 20.0215611505 25.7803035217 1.54739709206
2589 1 19.9966147794 27.6027715254 3.20362225328
2551 1 21.0727294772 27.8803837668 1.07917306985
2864 1 23.1592778195 26.2482312614 0.208965318399
2487 1 22.9192115759 27.9195885695 2.91731382798
3186 1 26.0736400051 28.9302497526 1.26220218556
3251 2 24.7703215941 27.058216487 1.47408481309
3187 1 25.880131374 27.2215351472 3.45780294078
3149 1 27.2170678896 26.8071147941 1.42542255778
3471 1 30.0119356225 29.0971360049 3.18041410518
3477 1 29.9770326565 26.8235838723 1.43402922994
3514 1 28.607668322 28.8540291825 1.19281028785
3515 1 28.5815480985 27.0845771459 3.44026248763
3143 1 27.3369931279 29.1706649646 3.26679171352
3799 1 32.8198398732 29.0948642995 3.14738697552
3805 1 32.7931406964 26.8494234431 1.41239253684
3842 1 31.3784158311 28.8443291769 1.14757733057
3843 1 31.4033651841 27.0847458893 3.41993654002
4170 1 34.2142196302 28.8472655657 1.13488440558
4171 1 34.2360510922 27.0938188871 3.40044304608
4127 1 35.6418171703 29.0835028671 3.11945557436
4133 1 35.6205350106 26.867688898 1.40193026597
4498 2 36.9954174786 28.9382770487 1.00720493833
4499 2 36.9997275169 27.0238495647 3.50991782063
4455 1 38.3687161985 29.107407947 3.08762595249
4461 1 38.317252134 26.8652081806 1.39095792195
4789 1 40.9565751433 26.7585498102 1.39336810327
4826 1 39.7504114147 28.8208410146 1.07617235741
4827 1 39.7064823223 27.1390192248 3.36088667143
4783 1 41.2246497485 29.1380311433 3.00641080963
242 2 45.536252498 25.9345304275 1.59885133769
240 1 44.5401120424 27.8065377857 0.883383511197
5154 2 42.4294717715 28.4643489565 1.14093540002
5155 1 42.7076338197 27.0963311075 3.13689713909
289 1 0.370432480754 29.8843740963 1.12652091955
191 1 1.59884024374 29.5814918657 3.17995420147
293 1 2.92460625459 29.9532160209 1.13360996
227 1 1.54600434244 32.0181858407 1.44132898902
555 1 2.91439452232 31.7374417672 3.42070134255
234 1 0.254658766575 31.490542533 3.49240782631
518 1 4.35190543839 31.9770173879 1.44473992975
519 1 4.28740333423 29.7384969077 3.30262408121
846 1 7.23417864088 31.9635796022 1.41245782193
847 1 7.25198669318 29.7691542887 3.15844211248
890 1 5.78260627374 30.0216588112 1.21572917042
883 1 5.81802171963 31.7179373963 3.391797956
1174 1 10.0246361364 31.9765504805 1.40551523995
1175 1 10.0555966686 29.7557975022 3.16631874307
1218 1 8.6503909325 29.9748656762 1.16632985985
1211 1 8.64269486609 31.7486139048 3.41842730067
1539 1 11.4318462144 31.7604026173 3.41079853803
1546 1 11.4298838078 29.9745839426 1.13786099285
1502 1 12.8315707873 31.9651385212 1.39593920056
1503 1 12.8306430394 29.7609311467 3.15783770472
1874 1 14.22195884 29.9576949 1.14838669828
1867 1 14.2495608394 31.7502160731 3.40509419208
1830 1 15.6288477397 31.9516434415 1.37827856334
1831 1 15.610772283 29.7079607393 3.17709838595
2158 1 18.3623256733 31.8803043524 1.37115460551
2202 1 17.0408898624 29.8771628814 1.1816751482
2159 1 18.5502965787 29.6626420045 3.21540906548
2195 2 16.9879522011 31.5726265908 3.30524190635
2814 1 19.7435568771 29.8556089727 1.1015279451
2851 2 22.4137437341 29.6729586674 1.02488763194
2843 1 21.1513759505 29.6546011848 3.10633405142
2530 1 21.1168024805 31.7428703343 1.19053622875
2523 1 19.8169833328 31.7820225903 3.3129324203
2488 2 24.7533311144 29.4051568601 3.40134780889
2806 1 23.1974520968 31.1624127865 2.82034626236
2815 1 25.9846009201 31.2325551821 2.97114365488
3179 1 24.6308302373 30.8237391307 0.969381463859
3178 1 25.8382584927 32.8955446668 0.648222636944
3142 1 27.283980544 30.9250522151 0.905259034153
3470 1 29.9782384169 30.8567209675 0.875952813395
3507 1 28.6555306693 31.1430371109 2.92824078729
3506 1 28.6437223572 32.8937818806 0.579773416072
3798 1 32.7834523375 30.8459784285 0.871941682585
3835 1 31.3710850957 31.1032363318 2.8788223136
4162 1 34.198061443 32.8468803416 0.622909547783
3834 1 31.3725784573 32.8626872086 0.635314762789
4163 1 34.23485284 31.0750756052 2.84351882085
4126 1 35.5983448322 30.8600855857 0.84363242446
4491 1 37.0309470163 31.0898147237 2.83337615093
4490 1 37.0001241029 32.8201979616 0.595839645534
4454 1 38.4417851559 30.8588504835 0.814922774562
4782 1 41.2410552632 30.766125518 0.88114797
4819 1 39.813000871 31.1050000276 2.80118535629
4818 1 39.8592924765 32.8075339513 0.531684580711
235 1 44.220322981 29.4946050552 2.85428476838
5111 1 43.9138332382 30.2263916706 0.417767933804
5147 1 42.7700951167 31.4740809411 2.79390640418
5146 1 42.743969371 32.5952339021 0.414859114288
5110 1 44.7232665758 32.1120599179 1.64528862015
181 1 1.51561169544 36.3248379616 1.93664763393
554 1 2.97226448489 34.0253485777 1.66573107672
247 1 0.202576226104 34.2078838892 1.86380645952
82 1 0.0339576972405 36.4744670754 0.0164421353765
509 1 4.50604245131 35.876629333 1.87950554993
837 1 7.20114597144 35.990934466 1.89775176358
882 1 5.84661867773 33.9069840648 1.69663761278
510 1 4.43007576223 33.7049892994 3.65456476534
1165 1 9.96050361783 35.9413144459 1.88047411054
1210 1 8.59060293601 33.9784682644 1.64993999381
1538 1 11.4086589189 33.9527430582 1.64812908411
1166 1 10.009022733 33.7584278771 3.65588980871
1493 1 12.828609086 35.9155530528 1.88640972164
1866 1 14.2427001763 33.9446961712 1.66189469139
1494 1 12.8270945918 33.7478668032 3.65175370752
2149 1 18.4903146091 35.9106262355 2.03616735678
1821 1 15.5777586811 35.9746857154 1.87722017439
2194 1 17.0139238464 33.9729254035 1.67315601264
2477 2 20.9651519819 35.5783649527 1.89057153121
2522 1 19.6416463624 33.7749589977 1.70610417894
2514 1 21.7922466205 33.1842814977 2.82073133245
2913 1 21.3967710454 34.3353651818 0.0613773727066
2850 1 23.3353658479 32.9562709781 0.877939489529
2836 1 24.6084718935 33.1933551613 2.80024526009
2798 1 23.0635417539 35.1401161915 2.51777098895
3170 1 25.8924148191 35.1446083863 2.418431708
2842 1 24.4444958987 34.9063494474 0.417649827912
3462 1 29.9700214664 33.1322830615 2.66262191597
3134 2 27.2802536242 33.1376997705 2.4651957467
3133 1 27.2170582036 34.87979105 0.377488051443
3461 1 29.9992511674 34.8921098534 0.379883137511
3498 1 28.6222186541 35.13899297 2.3978966117
3790 1 32.802634415 33.0867382355 2.63456031093
3789 1 32.7952694972 34.8557082043 0.400769138913
3826 1 31.400278303 35.1059925462 2.40703819231
4154 1 34.2130063944 35.0931350329 2.40156114384
4118 1 35.6272294111 33.0915070112 2.61274803413
4117 1 35.6079588551 34.8440887865 0.39860916854
4482 1 36.9986904099 35.0891453078 2.37795397717
4774 1 41.1214698669 33.2187390222 2.45748039305
4446 1 38.4133336687 33.0931150262 2.56817442997
4810 1 39.6758106544 35.1213817791 2.27300518102
4445 2 38.3526728035 34.7326101705 0.268023829804
4773 1 41.4965738106 34.6628679837 0.31695336586
4633 1 41.8350405746 36.3070780245 2.15480502618
4961 1 44.3919336718 36.4792933112 2.13511899197
5138 1 43.2584350367 34.3293464496 2.19082732712
5101 1 44.3559576798 34.4758616183 0.0433308044843
5002 1 42.9713099218 36.5134558542 0.0342549395181
40 1 2.99636066939 3.15408825808 4.18872853911
540 1 3.05934813841 0.793847158059 6.12963040135
174 1 0.172615174719 0.449745880387 6.20723134054
402 1 1.48736497533 2.37434206683 6.09574260894
406 1 1.65661377197 1.12101512116 4.04772447606
78 1 0.495635794422 3.44634846722 3.88699434472
407 2 4.36873161308 2.88256771585 6.21607525907
368 1 4.52163579962 1.1754784931 4.20318894334
692 1 7.20053967699 3.01423090826 6.34027043377
696 1 7.20678524356 1.22293078161 4.11493749901
735 1 5.8423230626 0.960957157356 6.16290998878
734 1 5.81877003208 3.24884137388 4.32298977593
1020 1 9.99275894436 3.02018137019 6.38338443326
1024 1 9.98773047827 1.19316602848 4.11546100799
1063 1 8.60496182637 1.00796390625 6.13482192021
1062 1 8.65348251984 3.22917020552 4.32962358957
1390 2 11.3720623663 3.08023277148 4.45355255948
1391 1 11.3786883728 0.993564453083 6.12901578192
1348 1 12.7544309115 2.97719400899 6.37076807657
1352 1 12.7746796183 1.16026976899 4.11443419109
1719 1 14.1756744917 0.961859086107 6.1110616463
1718 1 14.0891858096 3.16700211584 4.30288040041
1676 1 15.534726914 2.94281016228 6.28825237193
1680 1 15.5601072363 1.21410971521 4.10329075427
2008 1 18.6763371586 1.05028088036 4.15162549067
2047 1 17.0372529576 0.89449046228 5.99894753155
2369 1 18.2429299772 2.93403136686 6.31469960419
2046 1 17.0598873874 3.10102938191 4.26220057635
2697 1 19.7765883726 3.22764610273 4.41245802592
2662 1 22.2095571891 2.9821476222 4.9320964672
2370 1 20.1848342704 1.69369048104 6.43747381402
2333 1 22.8534970144 0.666618718948 4.3033235629
2701 1 24.440839999 2.77568533313 4.06586604414
3033 1 25.8101968978 0.860154164365 4.23948504394
2704 1 24.2569443319 1.18580763589 6.18623909407
3030 1 25.9392113923 3.01499421433 5.9516827616
2991 1 27.241579036 2.8404888545 3.94282291989
2992 1 27.2794360017 1.03025260639 6.19889133611
3319 1 30.049488097 2.81467323242 3.96914924803
3320 1 30.0512439488 1.03489291137 6.21541155468
3358 1 28.6563490642 3.04637799988 5.97878455636
3361 1 28.6752259074 0.854856087234 4.18312745349
3647 1 32.8177393833 2.80122819202 3.98799081929
3648 1 32.8247141152 1.02779840605 6.22343140422
3686 1 31.4323798998 3.04216164197 6.00637217802
3689 1 31.4188962872 0.785375622745 4.19594169443
4017 1 34.2233104957 0.795024607953 4.2076374161
4014 1 34.2217359549 3.03699345804 6.01769810527
3975 1 35.5946279143 2.82465140528 4.00633761201
3976 1 35.6454833431 1.03986234682 6.22060169831
4342 1 37.0248308063 3.06783596243 6.01239911048
4345 1 36.9840405444 0.812976777109 4.22681287247
4303 1 38.3513401295 2.86996787844 3.97311634517
4631 1 41.0575780605 2.99925132551 4.02980614593
4304 1 38.4765949746 1.07134135006 6.16303267126
4632 1 41.0214842227 1.20596568313 6.12345974335
4670 1 39.7237989295 3.17613437037 5.99611189325
4673 1 39.7930087383 0.838587135779 4.0397216308
218 1 44.961818666 1.28567705946 4.17020240993
79 1 45.0527627073 3.21434727803 6.08242399989
4959 1 43.7666755491 3.24321361166 4.03667985037
4998 1 42.3410657926 3.25657758135 5.98466639901
5001 1 42.4733902284 1.04923331138 4.13825749118
37 1 43.6935082761 1.34531988855 6.24743932723
401 2 2.00580649587 5.4814478352 4.37147930626
72 1 0.541576521995 7.28774029897 5.489768068
30 2 1.46383399502 4.22608437271 7.2888065528
363 1 4.35345131789 5.20867454938 4.63180223168
691 1 7.20316559791 5.228415035 4.58601280175
729 1 5.78226854829 4.9787135731 6.5719502991
685 1 7.18236917778 7.02164473299 6.79678320262
357 1 4.39353769607 6.95985737362 6.78986864094
728 1 5.76560884922 7.24308186003 4.80617220235
1019 1 10.0471891406 5.19954702629 4.60862560117
1057 1 8.60743864738 5.0200186128 6.58275033746
1013 1 9.9915409082 7.04534831799 6.82780390966
1056 1 8.62337271464 7.21719949784 4.8214689158
1385 2 11.3843593753 5.10516695326 6.74610537554
1384 1 11.4197503562 7.22370078067 4.83312201077
1347 1 12.7047808666 5.14953649802 4.58972860115
1713 1 14.1022144339 4.94268447412 6.56823596838
1341 1 12.7973619297 7.01321201295 6.84696873216
1712 1 14.1360097529 7.11814414697 4.8107782253
1675 1 15.5360205348 5.08960473002 4.55843540697
2041 1 16.9236414337 4.8906101367 6.57051338306