ITEM: TIMESTEP
34000
ITEM: NUMBER OF ATOMS
5248
ITEM: BOX BOUNDS pp pp pp
0.0 45.68
0.0 36.5618393957
0.0 36.5618393957
ITEM: ATOMS id type x y z
409 2 3.35322252567 1.21127647371 2.17882122271
41 1 1.80019729006 1.70763953324 0.0803047780596
39 2 1.53623155029 3.61310560121 1.60983435595
697 1 7.06943625392 1.6969198298 0.0973759476871
737 1 5.81693638841 1.54236059803 2.18989423229
695 1 7.12311377976 3.50764419442 2.32547311137
367 1 4.25894748992 3.45821065914 2.27076303656
369 1 4.37704733974 1.74368375625 0.0717586647325
1065 1 8.47315450076 1.46984858072 2.10380318448
1023 1 9.87009941121 3.4551782428 2.31097507907
1393 1 11.2681723677 1.48062796981 2.09771155759
1025 1 9.87014179881 1.68663462684 0.0884257395174
1353 2 12.6448855458 1.7361239936 0.0805093852452
1721 1 14.0370165106 1.49903861969 2.0700445417
1351 1 12.6667901308 3.46351299148 2.30131535512
1681 1 15.4484121411 1.74741945352 0.0895709030961
2049 1 16.8594718757 1.522614909 2.0557187133
1679 1 15.4646459736 3.49937437085 2.28784741659
2007 1 18.3613255228 3.47241020469 2.2865232501
2009 1 18.3331692433 1.71241931311 0.111584768004
2377 1 19.7705961328 1.46587976967 2.04972365264
2337 1 21.3294609937 1.82795702358 0.187629140252
2477 2 21.7849975044 0.204647054059 2.35470315307
2336 1 22.9045149988 2.20772213287 2.13127914624
3032 1 25.8896237722 2.22219943304 2.09020402715
2665 1 24.3826711695 0.279050466347 2.30990895721
3034 1 25.7870239561 0.18599075317 0.302527719521
2731 1 24.2430013883 1.98611981853 0.0717680196118
3360 2 28.5152734053 2.49134516858 1.97847370531
3321 1 30.0683184895 0.53315771362 2.18511987227
2993 1 27.3338364641 0.398187042953 2.21782334138
3362 1 28.6315826042 0.201468011738 0.180891661001
3649 1 32.9047944925 0.499136074891 2.19108251764
3688 2 31.6156200974 2.50509156889 1.96744337109
3690 1 31.4397992168 0.289879984922 0.197222783421
4018 1 34.2720032588 0.289602384436 0.172432440041
4016 1 34.2954932519 2.52488202127 1.97874168968
3977 1 35.696415286 0.526781495054 2.17064501315
4344 1 37.083393279 2.54512895521 1.95891643649
4346 1 37.0850315121 0.300670539765 0.145103641838
4305 1 38.4478174731 0.533324617554 2.1452070802
4672 1 39.8219514558 2.52000272318 1.92940996748
4633 1 41.2482395182 0.467926985514 2.12186238817
4674 1 39.8902585379 0.297354941802 0.117294066005
81 1 45.4348415164 2.24640888833 1.8527348341
5000 1 42.5168836002 2.52747740032 1.95404304165
4961 1 43.8074338367 0.486430147058 2.00862347579
82 1 45.6011316515 0.180007029828 0.127000859775
5002 1 42.7031039115 0.21419136986 0.0266021937762
36 1 2.90745457363 5.43163928263 2.52288701833
77 1 0.330187377313 4.91819505067 2.84162911873
35 1 1.23942867465 5.89226770361 0.442920487866
736 1 5.69138709009 3.72699709755 0.303707332044
366 1 4.32143330393 5.76638572194 0.494674211053
694 1 7.11991470341 5.71595934667 0.52696685557
733 1 5.6892242679 5.46675522 2.52693037904
1392 1 11.2615522508 3.70927991197 0.308752494805
1064 1 8.48747911375 3.68877249631 0.303304287962
1022 1 9.8909794743 5.70573730424 0.511907777625
1061 1 8.53046353261 5.4965476175 2.54273330066
1389 2 11.2922119085 5.40062820872 2.42863179014
1720 1 14.0761417516 3.73031311574 0.310975171019
1350 1 12.7110390128 5.70755868891 0.526810570819
1717 1 14.0607202662 5.4603573623 2.55703371805
2048 1 16.9198739561 3.71567527145 0.319062709444
1678 1 15.5128665312 5.70513299642 0.572104891828
2006 1 18.3496371735 5.71338160612 0.558308799309
2045 1 16.9556049948 5.45886959649 2.5682322265
2376 1 19.7590005552 3.6874871793 0.27042366485
2335 1 21.0704868293 3.71973674972 2.24143876122
2373 1 19.7565396379 5.53456154764 2.60043815172
2767 1 22.736388624 3.92232020499 0.176054384151
2387 2 20.9689867573 5.69159154294 0.352712056113
2722 2 23.1085987984 7.06992010571 1.9656413587
2663 2 24.5576288444 3.90205193436 1.7943778007
3028 2 26.1582825671 6.69255763776 1.96088753201
3029 1 23.1159371962 4.76224241753 3.25490548725
2986 1 27.1417421629 4.46066076803 1.79522766927
3318 1 30.0287331903 4.45537462214 1.76449461312
3356 1 28.6277038138 6.45388055649 1.58666742073
3314 1 30.04741503 6.71112281753 3.57762211933
3646 1 32.8719874774 4.52977578879 1.75700763914
3684 1 31.4159366853 6.48971312344 1.55993915917
3642 1 32.8495595049 6.72872799469 3.55995939901
4012 1 34.2533864507 6.52282473374 1.55469020938
3970 1 35.6645213442 6.73223602323 3.569378841
3974 1 35.6894430901 4.5268100776 1.77278137896
4340 1 37.0195652916 6.55676686061 1.55992393256
4302 2 38.4394160245 4.61940919617 1.63935730358
4630 1 41.1383303987 4.56392233277 1.74421536329
4668 1 39.7979871966 6.59772026726 1.58850037594
4298 1 38.3940490548 6.75705690692 3.56772601884
4626 1 41.1401536511 6.79613840533 3.57141586511
4958 1 43.8629311742 4.46125322745 1.74319062874
4996 1 42.6056291568 6.6203238894 1.71583009221
4954 2 45.0004014185 6.68930768555 2.19575903389
70 1 1.51157901006 7.39924030412 2.71446348639
404 1 2.8469410237 7.6766471871 0.681433612582
38 1 1.6688036523 9.69504806668 0.969715824541
392 1 2.86363651155 9.45523452567 3.02673575738
362 1 4.30289746193 7.48118961925 2.69840049345
361 1 4.31552690206 9.69272168368 0.964357134757
689 1 7.15357078513 9.71319476963 0.951621340277
690 1 7.11534274152 7.48251659584 2.7496220626
727 1 5.71385594335 9.50035257209 2.97160947563
732 1 5.73219412137 7.730033321 0.713923449585
1017 1 9.95586902304 9.67477104903 0.973886924337
1018 1 9.94711685258 7.47249861356 2.7680896538
1055 1 8.54858742018 9.4645479779 2.97127518977
1060 1 8.54238969788 7.70869034653 0.756854355338
1388 1 11.3385312072 7.69600226733 0.776615855595
1383 1 11.3574342161 9.46763406366 2.98294771259
1345 1 12.786878911 9.68367507933 0.998455062407
1346 1 12.7200452857 7.47797789594 2.78766500392
1711 1 14.2212955606 9.48317457405 3.0080023332
1716 1 14.1334883383 7.70621304631 0.795752719141
2002 1 18.3601334303 7.42678207769 2.86101810596
1673 1 15.5598261628 9.72456663249 0.987985290577
1674 1 15.5018963322 7.3893925672 2.81948231852
2039 1 16.8435703703 9.25871297159 3.16550241565
2044 1 16.9369094818 7.72056702791 0.834992764812
2001 1 18.1953533181 9.80138353121 1.08566950544
2334 1 19.6609720635 7.8001300091 0.878223149174
2367 2 20.5380748398 8.55319697138 3.23227212325
2329 1 20.967594586 9.87886820991 1.23877482284
2323 1 23.0573925777 9.15246954899 3.22152620926
2059 1 24.536347279 8.82112950837 1.40290448484
2657 1 25.9898887791 8.85162060033 3.42068511286
3022 1 26.0553273195 10.5940142978 1.13256401206
2643 1 24.735313737 10.923842536 3.15342226422
2979 1 27.380930877 10.8066647824 3.20370397984
2985 1 27.3742730434 8.54183841125 1.48342239014
3307 1 30.1064731827 10.791104217 3.19717047672
3313 1 30.0045910807 8.51632727991 1.35564359124
3350 1 28.7438027263 10.6141279445 1.19895695801
3351 1 28.7452673114 8.78810466296 3.45120843703
3635 1 32.8344103743 10.7651252933 3.15851539039
3641 1 32.8274329704 8.52491347776 1.34802815877
3678 1 31.4410632229 10.5469767076 1.14032838299
3679 1 31.4439370534 8.73911770185 3.36671079321
4006 1 34.217446253 10.5504769621 1.13545633289
4007 1 34.2341475212 8.74724483076 3.36539948515
3963 1 35.6015782226 10.7787495646 3.15891595979
3969 1 35.6253673582 8.55013667378 1.34912122463
4334 1 36.9940614915 10.5779547274 1.1493054768
4335 1 36.9937653545 8.77039220011 3.36809276654
4291 1 38.3573220633 10.8076045788 3.18656424055
4297 1 38.3789841266 8.57019947979 1.37427826051
4619 1 41.0367029974 10.8301775148 3.22503278032
4625 1 41.164485831 8.62626001384 1.47904739993
4662 1 39.7449937921 10.5966532615 1.18577649316
4663 1 39.7308427675 8.78065858394 3.38483863371
135 1 45.5426500756 8.1386370085 0.345772260521
33 1 45.588012473 9.13440457683 3.09131938277
71 2 43.7115465832 9.16236709612 1.56746410914
4953 1 42.4084702902 10.8551960816 1.26267784146
4991 1 42.5581339659 8.87848031767 3.51298534102
398 1 3.01473813594 11.7493067328 1.22205711918
399 1 1.2958032314 11.3293377821 3.14443677802
391 1 2.79710849906 13.5342947299 3.29797823684
453 1 1.0447990029 13.0198001574 1.1898945237
354 1 4.49460785688 13.7317179161 1.38089422334
355 1 4.28868005675 11.5136371746 3.20927421199
682 1 7.25024413099 13.6922925699 1.37492281256
683 1 7.17002942583 11.4775309014 3.17775237938
726 1 5.76382535704 11.6904952442 1.16387644776
719 1 5.79342069699 13.4688422967 3.39552580143
1010 1 10.0437531146 13.6948419086 1.36584369126
1011 1 9.96932153973 11.4644746564 3.20263395642
1054 1 8.61537178528 11.6975834308 1.17400087512
1047 1 8.63467666215 13.4751145095 3.37124658659
1382 2 11.3940840471 11.5799358819 1.28450491621
1375 1 11.4210961358 13.4605259574 3.36284898386
1338 1 12.794305606 13.7093967858 1.35002495311
1339 1 12.838960334 11.4645219973 3.20329156231
1710 1 14.1818964166 11.7168936137 1.15298482299
1703 1 14.2002993147 13.4667779983 3.35947291165
2366 2 18.2302204548 10.9729252778 3.388590919
1666 1 15.4683224589 13.801088851 1.24121469592
1667 1 15.7127807048 11.494467382 3.15666036704
1994 1 18.3275169118 13.9186862562 1.32924234333
1995 2 16.8343197268 11.8633440522 0.756679308958
2031 2 16.6843311396 13.7766361254 3.13897593425
2688 2 21.382094676 12.1219586438 2.72458193567
2359 1 19.4756415172 11.8738280525 1.33750170435
2678 1 21.2560571796 13.6524764469 1.04896725986
2679 1 20.2688989151 14.219348588 3.20609290517
2421 1 23.044883583 11.1406926137 1.44188099825
2694 2 24.8715945071 12.6205818047 1.03419328763
2642 1 26.1051847836 12.882302841 3.03203863049
2680 1 23.5060051765 13.5352874809 2.55018968641
2978 1 27.3844381855 12.6935908602 0.94134566908
3306 1 30.1717981365 12.6413930681 0.979698310965
3343 1 28.7384769954 12.807377384 2.95774821665
3634 1 32.8343577239 12.5696652563 0.927004616296
3671 1 31.4812324181 12.808841234 2.98412392171
3999 1 34.2131722349 12.7882662663 2.9372339982
3998 1 34.2330907225 14.5893458948 0.704802606923
3962 1 35.6079426222 12.5769375823 0.932661143676
4327 1 36.9767930621 12.8077444045 2.95379236145
4326 1 36.9880306831 14.6059797048 0.717847527035
4290 1 38.3675447617 12.6098930239 0.950346031063
4618 1 41.0469703997 12.6833237955 0.95816914462
4655 1 39.7348061939 12.8517596385 2.99457029993
129 1 45.4257991562 10.9846710102 1.14506529357
4946 1 44.0370648995 10.9912145312 3.2108418791
63 1 45.3808819133 13.1605568818 3.22936067307
4938 1 42.4631885079 12.8314183236 2.98439046074
4990 1 43.8756533377 12.7840970588 1.09195317171
390 2 1.11052262763 15.0841648529 2.35925276566
83 1 0.879022902886 16.7454179861 0.560868607955
26 1 3.1739551744 15.7346877378 1.66176174
382 1 3.23016733362 17.5221330298 3.54268276962
345 1 4.51562870233 17.7581613046 1.54871161024
673 1 7.32161250715 17.7591800508 1.76405911536
718 1 5.93768886761 15.7293577502 1.57878242994
674 1 7.28428180767 15.4752437399 3.58263581448
346 1 4.56113496571 15.5079730619 3.57912702454
710 1 5.89821994989 17.4751831837 3.58692866115
1001 1 10.0134907059 17.7399103658 1.80045815575
1046 1 8.67961052394 15.7147227078 1.55075603057
1002 1 10.0553299719 15.4891169527 3.56919050727
1374 1 11.4077793207 15.7098418197 1.55468371037
1329 1 12.7444494379 17.7730054084 1.77521815777
1702 1 14.0780963582 15.7843833592 1.48602364275
1330 1 12.793488585 15.4899176317 3.56606737794
1657 1 15.5101329367 17.7945777332 1.75001030958
2030 1 16.8858237706 15.8300832707 1.53725534876
1985 1 18.3432553216 17.8493555338 1.73457629032
1658 1 15.4059435449 15.5899229121 3.52933004485
1986 1 18.2364705669 15.5397637561 3.5602662136
2869 1 19.7191150386 15.8451486405 1.56732715007
2824 1 22.0692040984 15.8876867998 2.39718484473
2351 1 21.0519867877 17.9922255777 1.68156166459
2314 1 19.7176902002 17.348629698 3.57233274329
2866 1 23.2730883644 14.681068651 0.46548592141
2313 2 23.222037422 17.9589021621 2.01607733663
3014 1 25.8113665876 14.7348992091 0.891064111581
3006 2 26.0299274709 16.7621525939 2.52611909193
2641 1 24.383989638 16.7215385962 0.484162729873
3342 1 28.71505254 14.6430514022 0.718569915223
2970 1 27.39688323 14.8556776281 2.77778127893
3298 1 30.0804707693 14.8341073358 2.74720489716
3297 1 30.0969584964 16.6324663776 0.477248873149
3334 1 28.7038824775 16.8561664468 2.51488630836
2969 1 27.3127705434 16.6299251681 0.513076947862
3670 1 31.5063429533 14.626451205 0.714272765657
3626 1 32.8498192754 14.8142730317 2.73278134992
3625 1 32.8831666692 16.6187306619 0.474458915311
3662 1 31.4688943651 16.8273616202 2.49742724401
3990 1 34.2372469944 16.8195507842 2.49577613449
3954 1 35.6012346157 14.8091462538 2.72673341552
3953 1 35.6207501185 16.6129265559 0.474143402225
4318 1 36.9829556254 16.8256371085 2.49289770437
4654 1 39.7394305476 14.6703711012 0.747104954165
4282 1 38.3583936705 14.8399711178 2.75576820435
4610 1 41.1259599659 14.8637617908 2.79486017601
4646 1 39.7429595135 16.8575174705 2.51967666327
4609 1 41.0920758423 16.7041825676 0.509062275788
4281 1 38.3656458878 16.6511297228 0.492271769353
125 1 45.117588289 14.7779322817 0.805451102927
4982 1 42.4109341474 14.6851490957 0.681242908324
27 2 43.6287120901 14.9181377667 2.56469116836
62 1 45.1721521109 17.0017133421 2.47085654288
4974 1 42.5037829255 16.9054281102 2.58352023972
4937 1 43.8085304975 16.727890251 0.496273703032
574 1 2.41608509536 19.022012717 0.0730449724952
17 1 1.0478350181 19.0057296821 2.22931590697
573 1 3.36639951307 19.7453932334 2.17820335175
244 1 1.80192927898 21.646952819 2.1894470663
572 1 3.06939263027 21.7575247067 0.149843317566
205 2 0.75459795812 20.6966389471 0.218773642294
861 1 7.29645262634 19.9799934579 0.0288746952191
901 2 5.92420323742 19.8567392158 2.17846185664
859 1 7.30615354976 21.8157249412 2.23507996226
531 1 4.49575039246 21.8119480903 2.1990341147
533 1 4.62512226221 19.9468082483 0.00416471250855
1189 1 9.98905931467 20.0049483745 0.003604688886
1229 1 8.65054927691 19.7727226491 2.05137689518
1187 1 10.0437712132 21.7913470887 2.26309948658
1557 1 11.3833480917 19.7814536282 2.0408969702
1517 1 12.7929665494 20.0310143421 0.0076821818507
1885 1 14.1525372981 19.793696721 2.01924340144
1515 1 12.7952206704 21.7948649841 2.28440176538
2213 1 16.9627107432 19.7940135592 1.9949719366
1843 1 15.5927662508 21.7855053582 2.28834113166
2171 1 18.3480700014 21.7906035827 2.19272407936
1845 1 15.5682826559 20.0114709424 0.00182934914407
2173 1 18.4684521252 20.0901662702 0.0558647040129
2828 1 19.9932892287 19.9814324602 2.12483461821
2541 1 21.3669379867 20.3626366679 0.0207936117203
2868 1 22.9138169571 20.3409643901 1.98282094183
3196 1 25.769259698 20.6274654358 2.06155437264
3198 2 25.990956962 18.6991393735 0.086058277003
3157 1 27.2682883949 18.7815246445 2.25920418166
3485 1 30.1120238852 18.8462381065 2.24813783216
3524 1 28.6831439101 20.7820728813 2.03729969629
3526 1 28.6961783414 18.6186411637 0.247721896315
3551 1 30.1271706607 20.6063131242 0.0199059182194
3223 1 27.2964176575 20.5971266349 0.0328027970067
3854 1 31.5034333808 18.623552299 0.220426566379
3813 1 32.8462441321 18.8070750093 2.24948319405
3852 1 31.5604132163 20.8607293061 2.01051799829
4180 2 34.2524772442 20.6582143142 2.01281654951
4182 1 34.2590986934 18.6341134664 0.224720454876
4510 1 36.9931641735 18.6484684012 0.203796588328
4141 1 35.6413880052 18.8110274529 2.23861009486
4508 1 36.9320036959 20.886068951 1.96410255234
4797 1 41.0976020318 18.8767429429 2.275924791
4469 1 38.3272199275 18.8662415527 2.21812944979
4836 1 39.7001152144 20.8438745689 1.95108712851
4838 1 39.7408105226 18.6864460482 0.233615763295
245 1 45.1254835912 20.895767088 2.13471917593
5125 1 43.7832121038 18.9087645178 2.26175356046
5164 1 42.4673580707 20.9236438527 2.05072347506
5166 1 42.486705632 18.7047875163 0.251982325741
246 1 45.271213911 18.6733297834 0.279052296986
5191 1 43.8933639579 20.7077447778 0.0711490951629
569 1 3.0625421591 23.7430561282 2.4962194279
627 1 1.79958573592 23.8615786199 0.446904857601
5122 1 0.417491989478 23.5763489046 2.5622749656
242 1 0.0358396515986 25.3122719665 1.03983922929
900 1 5.8928951434 21.9689935046 0.229401904333
530 1 4.40886242871 23.9018138569 0.444904641709
858 1 7.25200284222 23.9876840298 0.473039152508
897 1 5.86407134301 23.802622188 2.45816034135
1228 1 8.66196276729 21.993706468 0.254096529846
1186 1 10.026974483 24.0271058274 0.479102273332
1225 1 8.66487728427 23.810470044 2.48438011206
1556 1 11.4099111629 22.0144391412 0.24875624101
1553 1 11.4230773862 23.8061815354 2.51036036371
1884 1 14.1925569883 22.0202353932 0.265975702396
1514 1 12.8184559776 24.0308399121 0.508269601514
1881 1 14.224833462 23.7920772698 2.5461505046
2212 1 16.9661648214 22.0206786986 0.243979189152
1842 1 15.6065357788 24.0265623433 0.542488547983
2170 1 18.3416353308 24.0336189132 0.530487967094
2209 1 17.0195119029 23.7755997771 2.60006180594
2540 1 19.856493839 22.1640937172 0.285576785397
2495 1 19.6474273535 23.7741058235 2.57090490456
2537 1 21.2670387909 24.2617335091 0.351632094051
2494 1 21.482469364 22.3672061993 2.09481311418
2531 1 21.4510026878 25.2161152127 3.14305042081
2923 1 23.2037242352 24.6135027606 1.62745864753
2826 1 24.4492826944 22.5706089564 1.81990221456
3192 1 25.8977838265 24.6827759111 1.58873819301
2859 1 24.4609792904 25.0656960102 3.55730277452
2501 1 22.8915040652 22.3880641284 0.0303246004707
3154 1 27.2679093122 22.7066534918 1.77904977664
3478 1 30.1347342994 25.0158762426 3.54720997645
3482 1 30.1459563468 22.7897456307 1.78364126416
3520 1 28.7277790334 24.7277405286 1.57471315158
3150 1 27.2999297739 25.0000558041 3.55343374233
3806 1 32.9237618385 25.0655887013 3.53104710343
3810 1 33.0156239866 22.8514598356 1.76007225083
3848 1 31.5527930697 24.79816467 1.53072502121
4176 2 34.287777703 25.0708851034 1.49280293889
4134 1 35.6872887179 25.0960508705 3.53000356143
4138 1 35.5221132238 22.8754212789 1.73018312894
4504 1 36.9976831519 24.8598828125 1.49656343069
4462 1 38.3964288843 25.094704016 3.49247509419
4466 1 38.3592651832 22.8659031851 1.70133920203
4794 1 41.1165416097 22.9083624367 1.73945856589
4832 1 39.7937373089 24.878246219 1.55642411305
4790 1 41.3110262336 25.0885568875 3.58972670167
5190 1 45.3633649682 22.7222286026 0.137305858634
5160 1 42.5789404225 25.0046242877 1.54182493066
5161 1 43.8445781171 23.032176 1.99691148941
5118 1 44.3767011427 25.4438249188 3.09840976293
198 1 1.59277121541 25.7293122217 2.7911935714
568 1 3.00205768127 25.9090246059 0.772556865934
563 1 2.91943565931 27.7006115246 2.95907869381
197 1 1.41403932322 27.7966109729 0.937326544472
241 1 0.0235421397683 27.5023254379 3.1189062761
526 1 4.41372841682 25.7633391216 2.77319537726
525 1 4.41642398659 27.9206803634 1.053665655
853 1 7.1560027419 28.0021722737 0.969097410083
854 1 7.24436210059 25.7881452232 2.77640547372
891 1 5.82812536154 27.7434452508 3.01248113751
896 1 5.82893186415 25.9387426188 0.771584858992
1181 1 9.98290067604 28.0202330722 0.962628203746
1182 1 10.0275217386 25.8109617802 2.74557870102
1219 1 8.59935967677 27.7879489317 2.98688764308
1224 1 8.59692292984 26.0191000734 0.726909082614
1552 1 11.4140841114 26.0315998893 0.737538579521
1547 1 11.4279673612 27.79423258 2.97239057047
1509 1 12.8118665633 28.0341063153 0.984489112105
1510 1 12.8372534207 25.7978664609 2.76351232717
1875 1 14.2483122997 27.7914996247 3.01849078196
1880 1 14.2343854156 26.0441032352 0.774237017797
2166 1 18.4453108737 25.744356285 2.94613493577
1837 1 15.6468483965 28.0761196258 1.04113784687
1838 1 15.646424933 25.787464895 2.82729907954
2165 1 18.3352136298 28.1073101497 1.09370091288
2203 1 17.0866986337 27.7602612408 3.09522682978
2208 1 16.9948046308 26.0420792379 0.836185945126
2536 1 19.6142502904 26.0526335958 0.911140904784
2589 1 20.1077509145 27.4156465239 3.20035652757
2814 1 20.6441243546 28.6177450733 1.05450777049
2551 1 21.8510227767 26.6262294311 1.27395446435
2487 1 23.0037470699 27.057903716 3.36945220297
3186 1 25.94113986 28.7129604653 1.28199765089
3251 1 24.5316751396 26.6766325648 1.38590617039
3187 1 25.923442371 27.0084787581 3.35958861671
2851 2 23.1197953366 28.5573055322 1.44958720418
2488 1 24.4904482469 28.9907450281 3.27104109515
3149 1 27.3365155445 26.7193089683 1.38447861143
3471 1 30.0938468104 29.0342169247 3.07778934707
3477 1 30.0823114012 26.778397535 1.29787919115
3514 1 28.6585609969 28.7757678566 1.08831628823
3515 1 28.7272627518 27.0040515465 3.34261150555
3143 1 27.3426076179 29.0012532596 3.18269433946
3799 1 32.8921215444 29.0573473398 3.03771183424
3805 1 32.857507074 26.8810930889 1.27447851765
3842 1 31.4405559236 28.8300580427 1.03568378244
3843 1 31.5042702773 27.0407740545 3.299691443
4170 1 34.2801059803 28.8756327943 1.02700210526
4171 1 34.3081154649 27.0796030569 3.2861787415
4127 1 35.7039163077 29.0886047367 3.04671672888
4133 1 35.7195385616 26.919802815 1.27371840637
4498 1 37.1281143268 28.8944144355 1.04988047003
4499 1 37.0984177117 27.1116179253 3.32061121609
4455 1 38.5439826107 29.1044586813 3.10889154774
4461 1 38.4831638203 26.8895532231 1.29643631553
4789 1 41.1719689668 26.9301121517 1.42903580309
4826 1 39.9051963501 28.9364368961 1.0797176126
4827 1 39.8656089037 27.0908180514 3.36606648348
4783 1 41.3494787663 29.1846585968 3.09387458335
240 1 44.0410954949 27.0339709859 1.34931987598
5154 1 42.6704318982 28.9203154655 1.07707715106
5155 1 42.6593414646 27.1840963714 3.33842364773
289 2 45.2485166772 29.1015878617 1.56075950823
191 1 1.51416365618 29.5667317758 3.08168369091
293 1 2.95737517346 29.8392783794 1.08008914207
227 2 1.7030283499 31.7408142059 1.57511549563
555 1 2.90192364709 31.5265527391 3.58692718597
518 1 4.24575698405 31.9807770722 1.46186679285
519 2 4.37360262544 29.6777253375 3.19974517854
846 1 7.13278039271 31.9749681722 1.41831229481
847 1 7.17658506235 29.7527189499 3.19420915304
890 1 5.70943719847 30.0033907032 1.18905685383
883 1 5.76737775448 31.7140381063 3.43079548716
1174 1 9.93165261448 32.0202485862 1.4090154917
1175 1 9.99564433421 29.7680694603 3.18283649887
1218 1 8.54680931698 30.0026580418 1.17887069269
1211 1 8.556331148 31.7311148711 3.4182783029
1546 1 11.3718889393 30.0294882224 1.18700237339
1539 1 11.385996056 31.7580120299 3.40877211734
1502 1 12.7504347675 32.0444561295 1.41206799256
1503 1 12.8159577513 29.791037809 3.19953928294
1874 1 14.1926559139 30.0458335582 1.22032339829
1867 1 14.1764602785 31.8022706084 3.42143789136
1830 1 15.5152293129 32.0565274688 1.43407145513
1831 1 15.642233847 29.7665286872 3.2266957527
2158 1 18.1907427904 32.3393006037 1.47078257127
2202 1 17.0344624055 30.1458921819 1.28436978423
2159 1 18.627065572 29.5460807211 3.21363686659
2195 2 16.9980350942 31.6496371207 3.49176231435
2530 2 19.655971479 30.6215019596 1.45670601684
2523 1 19.6972778492 31.6941540659 3.44895235554
2843 1 21.4688785734 29.4822963709 3.18244011302
2806 2 23.3032678731 31.0071112947 3.21069780687
2815 1 25.9348196376 30.965477852 3.05145323024
3179 1 24.5340961654 30.6579226267 1.09228210727
3178 1 25.8195862651 32.7221996612 0.77898599241
2850 1 22.9349764812 32.7545414372 1.53354678724
3142 1 27.2128137851 30.7465391911 0.904994631852
3470 1 30.0211676922 30.8093310733 0.823830542053
3507 1 28.6926589598 31.0299037066 2.89299545802
3506 1 28.6077130073 32.7894620695 0.651660965949
3798 1 32.8471607465 30.8402709431 0.796175167013
3835 1 31.4817227693 31.0494253986 2.82179957621
3834 1 31.4340502247 32.8241547643 0.596734724309
4162 1 34.2654569767 32.847254601 0.580252745988
4163 1 34.2829886792 31.0756297768 2.80153418981
4126 1 35.697894024 30.8647662232 0.800875952074
4491 1 37.1210787022 31.0772822179 2.82297066324
4490 1 37.1065612855 32.8604525817 0.572071715303
4454 1 38.538932811 30.8943634363 0.81033594734
4782 1 41.3989125093 30.8994441327 0.814879330742
4819 1 39.9613330337 31.1035117045 2.83558820384
4818 1 39.9414349924 32.8764494409 0.578499436163
235 1 43.8773225249 29.3307349065 3.24219623232
234 1 45.5780511803 31.1971981138 3.05489459237
5111 1 43.988616908 30.9000160263 0.729975305517
5147 1 42.9006501273 31.6334693982 2.76042697436
181 1 1.63422389628 36.3629247967 1.89715114172
226 1 1.55226252756 33.5468946685 3.39756058733
554 2 3.30159857647 34.3320942161 1.91999996974
190 1 1.31148540099 34.1725850968 0.618005897359
509 1 4.6739000854 36.0325873751 1.94727759266
837 1 7.1290824868 35.9978889738 1.90844616012
882 1 5.78290179428 33.9066344734 1.71891442058
1165 2 9.88239363839 36.1206926108 1.77320911219
1210 1 8.51326355929 34.0175969176 1.64600627602
1538 1 11.2922797825 34.0386321327 1.63504198143
1166 2 9.94687836773 33.5838206634 3.6160570643
1493 1 12.6446632992 36.0340520676 1.87880027071
1866 1 14.0671367771 34.0625701799 1.636562307
1494 1 12.6880749572 33.7953066465 3.64047232968
1821 1 15.4146687325 36.1060932584 1.83372997027
2149 1 18.1508224009 36.0757069384 1.84928678859
2194 2 16.6062519225 34.1413812426 1.37057186976
2150 1 18.1609758336 33.8852741325 3.4000891248
1822 1 15.538981204 33.7945523351 3.58161892574
2522 2 19.656354901 34.3978110358 1.19271844003
2514 1 20.0901358337 35.4314222309 3.29051511556
2703 2 21.3419542904 33.2819495148 3.42375234725
2706 1 22.7777252105 36.4901473885 0.308076739478
2836 1 24.742141759 33.0150356708 2.93459123555
2798 1 23.0320424459 34.8679713149 2.78838801046
3170 1 25.9437167418 35.0102160333 2.51817547373
2842 1 24.4210079536 34.6818718286 0.67942652814
3462 1 30.0947366468 33.0460485669 2.63853414943
3134 1 27.3060190654 33.0100526013 2.74202897018
3133 1 27.1771436785 34.7604676692 0.426204303867
3461 1 30.0398512048 34.8170117496 0.406314146436
3498 1 28.7092100484 35.0293227809 2.41880370502
3790 1 32.8646000335 33.0746150549 2.58351075005
3789 1 32.8529602357 34.8471692939 0.392471440987
3826 1 31.4728003887 35.0928653347 2.40330246467
4154 1 34.2985372731 35.0735276136 2.39353580164
4118 1 35.703870137 33.0674625371 2.57240570771
4117 1 35.6841533656 34.8521526925 0.369949832544
4482 1 37.0960525729 35.0749225776 2.38132616735
4774 1 41.1689025006 33.1638063539 2.69732632847
4446 1 38.5062237059 33.0721359208 2.58843673458
4810 1 39.8269735421 35.1016014255 2.33905222681
4445 1 38.500641876 34.8553483136 0.33317452014
4773 1 41.3236907669 34.8853165899 0.374210033271
5110 1 44.9629480288 32.9572902927 1.56138871847
5146 2 42.6226648877 32.9959415214 0.675144225206
247 1 45.2874700234 35.1738726151 2.24012708385
5138 1 42.862351415 34.8544549019 2.42152711983
5101 1 44.2576748334 34.7739765955 0.14314242343
78 1 0.732236734684 2.97623266224 4.01882817668
40 1 3.16514393471 3.24030482377 4.45873182076
540 1 2.96692482268 1.00014242717 6.36781792171
174 1 0.465699485867 0.786644193156 5.97266564905
402 1 1.63122738551 3.31814714175 6.17958572087
406 1 2.00204184677 1.08603177895 4.20210498281
407 1 4.38913189313 3.01594667382 6.45792600483
368 1 4.46885932522 1.16561895806 4.24994296848
692 1 7.1301300941 3.01673571351 6.37975845029
696 1 7.16597002991 1.2191952805 4.1546153821
735 1 5.79011320809 0.961630417339 6.22525630711
734 1 5.73949077233 3.25227742594 4.35676906635
1020 1 9.91423783983 3.02838900143 6.339817671
1024 1 9.89886787938 1.23891469209 4.10042128934
1063 1 8.52965872468 1.02843588165 6.14792818938
1062 1 8.52202457593 3.26633594396 4.34038792761
1391 1 11.3339268766 1.03499254159 6.09700590383
1390 1 11.2808504791 3.2522886333 4.30667220412
1348 1 12.6909724695 3.04428887919 6.30262608726
1352 1 12.6659331617 1.23350267547 4.06408645303
1719 1 14.077678935 1.02819897114 6.07097579664
1718 1 14.0600508707 3.29064681953 4.29854840847
1676 1 15.5202183295 3.05778292323 6.28145563237
1680 1 15.4188802909 1.30165368793 4.04284243304
2008 1 18.317483792 1.11087007976 3.93380856172
2047 1 16.8651128521 1.01869091248 5.97880210452
2369 1 18.1849058289 3.07241984274 6.23331425078
2046 1 16.876072965 3.24760435857 4.23316095862
2698 2 19.4739701958 1.22018534332 5.89586582705
2697 1 19.6899541373 3.07355443609 4.25127346964
2662 2 22.089050942 2.77581315735 4.44468005366
2333 1 23.0287563468 0.542064214362 4.35529856785
2701 1 24.4426906842 2.67806827371 4.0734813895
3033 1 25.9534071498 0.72152264106 4.16839538157
2704 2 24.8331350227 1.0642027606 6.05125039169
3030 1 25.9374765533 3.02822514992 5.9806351315
2991 1 27.3159074575 2.75795954463 3.99568657345
2992 1 27.3874300931 0.948918148747 6.192691904
3319 1 30.110205842 2.71770926486 3.94025199684
3320 1 30.1494123566 0.954325430986 6.20372344147
3358 2 28.7088206752 2.96090524129 5.97325803047
3361 1 28.7264624946 0.747172854806 4.19975359219
3647 1 32.913803443 2.73588652584 4.00434786584
3648 1 32.9426288224 0.959721073128 6.22146504884
3686 1 31.5081616237 2.94753676773 5.98171436431
3689 1 31.5066928352 0.750997096926 4.18769610569
4014 1 34.307773871 2.97487703026 6.01456614755
4017 1 34.3318485829 0.743171655194 4.20699510706
3975 1 35.7182600293 2.7549841933 3.98945865302
3976 1 35.7257795348 0.982500371312 6.25364012287
4342 1 37.1009079386 2.99962422706 6.00478025279
4345 1 37.058099703 0.715760871284 4.21017015313
4303 2 38.4445419867 2.57431507228 3.99129498495
4631 1 41.138943637 2.74857348818 3.97046432934
4304 1 38.4850831153 0.990761464471 6.22553931293
4632 1 41.1908796217 1.05529399379 6.18985454385
4670 1 39.8149851747 3.03634819716 6.00431366383
4673 1 39.8180653246 0.753782464362 4.14661313028
218 1 45.2247120488 0.931190422735 3.81449312593
79 1 44.9503000429 2.84481324844 6.09736548018
4959 1 43.9682231279 2.91987538356 3.84067373603
4998 1 42.5433589729 3.03312782723 5.98437925437
5001 1 42.5967794528 0.794825237338 4.08524230296
37 1 43.7338943316 0.856673555808 6.13857836049
401 1 1.8164067382 5.34166656988 4.76643816289
30 1 2.96795258127 5.09950703827 6.82063425922
393 2 1.75438570876 7.14164519971 6.60591982897
72 1 0.0808857829987 7.1465912396 4.79888577605
363 1 4.35533392909 5.28107345738 4.57298310648
691 1 7.11569415613 5.27568938599 4.55112752359
729 1 5.72835443355 5.04214691925 6.59757482002
685 1 7.10510523212 7.05936084218 6.78419630729
357 1 4.36617608952 7.08624060501 6.78468831694
728 1 5.70764440672 7.2941487136 4.75432558104
1019 1 9.92127025015 5.27433432084 4.53234573267
1057 1 8.51533667824 5.03679477394 6.5543097759
1013 1 9.88430589934 7.03073687602 6.78648718336