ITEM: TIMESTEP
40000
ITEM: NUMBER OF ATOMS
5248
ITEM: BOX BOUNDS pp pp pp
0.0 45.68
0.0 36.5618393957
0.0 36.5618393957
ITEM: ATOMS id type x y z
409 2 3.30459808302 1.37541147287 2.48311963626
39 1 1.9436461859 3.02050329203 1.86761529454
181 1 1.45073544352 0.094955564679 1.89214221719
697 1 7.11117234229 1.75824786263 0.0996163075479
737 1 5.75949910127 1.47843664575 2.0996590614
695 1 7.10033063952 3.50943592378 2.31509723199
367 1 4.39381377906 3.50604749443 2.24971725467
369 1 4.16730720267 1.81468557585 0.151128954857
1065 1 8.52286329824 1.50047424212 2.11814711684
1023 1 9.91439183524 3.47247998809 2.33115041861
1393 1 11.311559348 1.47211412698 2.1082868255
1025 1 9.91887637304 1.71432439945 0.0954758748103
1353 1 12.7266264194 1.69422201897 0.107826576149
1721 1 14.1304831595 1.45893371142 2.10117243454
1351 1 12.7240455361 3.42722926449 2.33589697862
1720 1 14.1574993344 3.65577478728 0.331037894983
1681 1 15.5937253945 1.6661835743 0.136026413273
2049 1 17.0204380244 1.43340630428 2.15630311852
1679 1 15.5613848038 3.39919493561 2.35169174028
2007 1 18.5235925796 3.3536755808 2.3014947528
2009 1 18.4144312108 1.72245978487 0.152452261506
2377 2 20.6836342075 2.11705827822 2.98889624302
2337 1 21.229634932 1.8326869416 0.377370459736
2706 1 22.8258887083 0.10161296046 0.261060208056
2336 1 23.0464485668 2.41319097294 2.14951699715
3032 1 25.8853394043 2.5741274996 1.91325403928
2665 1 24.5649902656 0.518522267629 2.11400727481
3034 1 25.8467987615 0.271066605378 0.0962327347774
2731 1 24.3191150022 2.06965242263 0.0811427634224
3360 1 28.6401977827 2.55363703096 1.93113122946
3321 1 30.0516935111 0.552804099029 2.13129873117
2993 1 27.2437552251 0.53924772854 2.14279571831
3362 1 28.6280275567 0.301454112171 0.10977503824
3649 1 32.8554558438 0.563144841689 2.13919488474
3688 1 31.4482075181 2.55933562631 1.92519147084
3690 1 31.4578531748 0.326947257763 0.115795375344
4016 1 34.2490959933 2.58059789597 1.9479370108
4018 1 34.2633523583 0.332877777442 0.118425653515
3977 1 35.6182825355 0.58201049901 2.15310859301
4344 1 37.0299532922 2.57565521003 1.97613567191
4346 1 36.9774641332 0.324323076752 0.0973335014198
4305 2 38.1794875163 0.425995103747 2.06773853611
4672 2 40.8126322995 1.92583979761 2.12870168672
4674 1 39.9233287528 0.250368444843 0.261401944675
81 1 45.4445175164 2.28870368782 1.9205246265
5000 1 43.004841472 2.08171206237 1.93223130533
36 1 2.80602463385 5.33538216914 2.25066498804
77 2 0.385543494818 5.12800123745 1.84433185136
35 1 1.25606758432 6.21332730452 0.109354603306
736 1 5.64984743119 3.74116339452 0.241085037257
366 1 4.21949333676 5.82239762288 0.41745109198
694 1 7.11695318924 5.70897276226 0.518757275699
733 1 5.68964222237 5.5225973499 2.48806424261
1064 1 8.514389809 3.71438029626 0.308939541469
1392 1 11.3334425467 3.69088816234 0.316859850159
1022 1 9.93291634484 5.6950885077 0.517639667343
1061 1 8.56011419566 5.49072939548 2.54832297169
1389 2 11.338197874 5.38093480004 2.42636905389
1350 1 12.7709750443 5.66839057848 0.508621965304
1717 1 14.0839254477 5.38968518431 2.55838582949
2048 1 16.9839998612 3.66638106466 0.348361926081
1678 1 15.534827723 5.6432969199 0.539657324203
2006 1 18.3326131067 5.67809091282 0.465195865441
2045 1 16.9545211448 5.31993927427 2.52201244977
2335 1 21.4240235117 4.08064623265 2.1721686425
2376 1 19.8334729286 3.81419728671 0.219195208988
2373 1 19.6236455733 5.56675424576 2.41987547775
2387 1 21.2925813695 5.7788040972 0.335451420083
2759 1 21.7916193706 6.73170737908 2.56908607276
2767 1 22.6738556127 3.78760705369 0.0934972301606
2663 1 24.3740116026 4.45454557881 1.80500218856
3028 1 25.7910410355 6.64590519371 1.39793527065
2695 1 24.4049161047 7.00672648538 3.31877527689
2986 1 27.2495589321 4.60577515824 1.76566136504
3318 1 30.0412719431 4.56314946404 1.72937054355
3356 1 28.6589582186 6.59141909062 1.51065294498
3314 1 30.0193918602 6.81677719914 3.53876719011
3023 1 27.2882846808 6.70796364881 3.47732626498
3646 1 32.831436933 4.57707323013 1.74255238526
3684 1 31.410539346 6.5856333097 1.51430209202
3642 1 32.7939832943 6.82665077926 3.53386409911
4012 1 34.2128163349 6.57740173697 1.52527651756
3970 1 35.5949577315 6.82462161743 3.53217833378
3974 1 35.6475210765 4.56590026962 1.73763880762
4340 1 36.9892067053 6.55912626037 1.5378313707
4302 2 38.4142120701 4.49731324361 1.5441881538
4630 1 41.0639685074 4.35709712734 1.74600969473
4668 1 39.7203415497 6.50969175279 1.56245303369
4626 1 41.0584269014 6.89066597782 3.57291888893
4298 2 38.2998045389 6.97658858859 3.61157797257
4958 1 43.9225405154 4.34517014557 1.82014156332
4996 1 42.4940300248 6.39894638234 1.72868690836
4954 1 44.8048207814 7.09554978989 2.21797386243
70 1 1.61659429056 7.38243033459 2.83738251015
404 1 2.89748471826 7.87383746649 0.707786411458
38 2 1.43952495746 9.69107871895 1.69598906987
392 1 3.00763798067 9.45119033026 3.2098156181
33 1 0.0157774592688 9.0950777376 3.45691764715
362 1 4.34502713009 7.51588587974 2.75851159832
361 1 4.46090500993 9.73151328271 1.08100815902
689 1 7.17927141894 9.70634727235 1.01246828861
690 1 7.15681547262 7.49315468483 2.77718367775
727 1 5.78142627767 9.50309973041 3.05864579301
732 1 5.73759420524 7.71341349773 0.744905990789
1017 1 9.98222029206 9.65907470656 1.00170102921
1018 1 9.97723918622 7.46033506691 2.7709519014
1055 1 8.58618265525 9.47475529243 3.00607139266
1060 1 8.56805258154 7.69140613039 0.780810636155
1388 1 11.3682155709 7.66681397212 0.768976325769
1383 1 11.3797990403 9.45715533861 3.00192621597
1345 1 12.7777030042 9.65000689104 0.994041877204
1346 1 12.7309011524 7.42862012909 2.76065242159
1711 1 14.1623222547 9.43073289767 2.98419303772
1716 1 14.1390597691 7.66223640281 0.758996227163
2002 1 18.1701423258 7.34449930681 2.76292929366
1673 1 15.5311155081 9.69904594029 0.973984711593
1674 1 15.4615173154 7.32374809014 2.75871021536
2039 1 16.7391860214 9.28784293781 2.99711221297
2044 1 16.8897215 7.64907613795 0.761793959126
2001 1 18.2618080451 9.60515554372 1.08166794864
2366 2 18.3127734462 10.7442142564 3.36429766258
2334 1 19.7401696682 7.60604371338 0.907698939442
2367 1 19.9002754364 9.02229729919 3.08102136875
2329 2 20.8291117252 9.76872626201 1.08717167537
2323 1 22.3164941254 8.93740408679 3.13655125914
2722 2 23.5350950859 8.15958184227 1.29230497519
2059 1 24.5551123974 9.78189426848 2.38075991885
3022 2 26.0215786061 10.6498278548 0.898793239106
2657 1 26.1621262336 8.64474596824 3.48302101155
2979 1 27.1871715436 10.8015730443 3.04993407339
2985 1 27.2353944637 8.59614942958 1.29091479177
3307 1 29.9711240309 10.8497103461 3.1090342124
3313 1 30.0048194195 8.60101149163 1.2861309554
3350 1 28.623301179 10.6057371106 1.07288119348
3351 1 28.624722967 8.82504936988 3.31683504256
3635 1 32.764157366 10.8555243783 3.0953117925
3641 1 32.7883062923 8.59904829839 1.29660986202
3678 1 31.3826703763 10.6183146035 1.07542387428
3679 1 31.3835267179 8.84112976197 3.31819644667
4006 1 34.1752661037 10.6071779498 1.07908292254
4007 1 34.1704577031 8.83785016751 3.31502643081
3963 1 35.5478095933 10.8595508079 3.09644544823
3969 1 35.5814530482 8.58368654265 1.30528662066
4334 1 36.9796994188 10.5854767833 1.0999966374
4335 1 36.9186113225 8.87288889929 3.31579435927
4291 1 38.3522400904 10.8370472812 3.12687311138
4297 1 38.3575479842 8.54121884578 1.33930434578
4619 1 41.208671558 10.6887497228 3.21383364871
4625 1 41.1461417481 8.44305035099 1.42989577517
4662 1 39.7791085832 10.4940679908 1.14950448602
4663 1 39.7297694428 8.84274175805 3.3355287964
71 1 44.5917701746 9.48320726563 1.36709855365
4953 1 42.4680472875 10.4392584763 1.19249557456
4991 1 42.8191660909 8.69565552987 3.25724142977
398 1 2.95489060949 11.6397414111 1.15430315638
399 1 1.52592919502 11.4644640031 3.26868797577
391 1 2.86369104546 13.5792778754 3.33335906389
453 1 1.65821055539 13.609607639 0.974231243159
129 1 0.251748695881 11.621534112 1.1821408565
354 1 4.40503093861 13.6930362471 1.38887669258
355 2 4.36110958743 11.5408166884 3.19421036159
682 1 7.27484243774 13.7057363759 1.44296407862
683 1 7.21854715795 11.4982814792 3.22555495261
726 1 5.84011557026 11.7278333222 1.22298601699
719 1 5.81359647559 13.5124552415 3.4044260161
1010 1 10.0491400953 13.6850335022 1.41742807652
1011 1 10.0040191331 11.4709959324 3.25383051553
1054 1 8.64072588085 11.6919428468 1.21969129855
1047 1 8.65186691696 13.4896228559 3.42731942344
1382 2 11.4051750175 11.569763797 1.33077170401
1375 1 11.4333524277 13.4704140173 3.42968395621
1338 1 12.7949603176 13.6932373606 1.42565076435
1339 1 12.8354468562 11.4522531487 3.28134148983
1710 1 14.1428461712 11.6721019359 1.23404639482
1703 1 14.1870556177 13.4521004629 3.43898495092
1666 1 15.4770830602 13.736715888 1.33287245036
1667 1 15.6114006916 11.4257300287 3.30220117951
1994 1 18.4598057381 13.9174460156 1.47056900853
1995 1 16.9974387614 11.7301888766 1.33580323097
2031 2 16.6892300925 13.5370590059 3.14748956263
2359 1 19.5290258444 11.6896702086 1.42775808283
2678 1 20.9801269892 13.5971465423 1.47599052974
2421 1 22.3951466489 11.4954019958 1.50132189164
2679 2 20.0777304297 13.1136690092 3.48664642782
2680 1 22.4786649763 13.2456083049 3.31440107358
2688 1 20.9520901771 11.0894797914 3.35392281228
2694 1 24.5466954945 12.2604068216 1.75716526573
2642 2 26.1786722712 12.8659528719 3.07242034174
3014 1 25.7392184344 14.5941536112 0.855394078906
2866 1 23.3274413959 14.2254161012 1.12968247818
2978 1 27.224882696 12.6466232881 0.892365229114
3306 1 29.9770750269 12.634444308 0.872571185308
3343 1 28.6277809471 12.8487655728 2.92203655622
3634 1 32.7738790512 12.6242401082 0.878694146514
3671 1 31.3662305988 12.8733723305 2.89540505143
3999 1 34.1576856497 12.8647121134 2.88001848996
3962 1 35.5811310301 12.6083697072 0.888277432511
4327 1 36.9676317961 12.845975492 2.89913065831
4326 1 36.9962154726 14.5887412255 0.693114192346
4290 1 38.406094762 12.5619902942 0.912098853933
4618 1 41.0916466353 12.4685023871 0.923546788333
4655 1 39.8060698278 12.7693450683 2.96786539388
4654 1 39.8063434772 14.5633578062 0.706150195689
4946 1 44.1726094839 10.9871691103 3.21599660955
63 1 45.5619839206 13.1967524077 3.07104006164
125 1 45.0757646458 14.3561829983 0.794446700527
4938 1 42.4560825617 12.6479842749 3.02640387373
4990 1 43.7818610791 12.3880389713 1.00703367873
4982 1 42.395201713 14.5035274015 0.666774960831
27 2 43.5068442331 14.4981098284 2.58590909413
26 1 3.03115829476 15.7147034755 1.35224907711
382 2 1.91816010687 18.1671343029 1.26483494945
62 1 0.651748158754 16.3588373841 0.798460338287
390 2 1.08787173999 15.1348095985 2.61894948632
18 1 0.805134044982 17.6118586935 3.23963311396
345 1 4.37931803353 17.7111676301 1.81063808978
673 1 7.26819993466 17.7155166559 1.81962564104
718 1 5.84976749536 15.7005412243 1.69944790902
674 1 7.25867472646 15.4894023121 3.64159643372
1001 1 10.0313890553 17.7346376738 1.79037294732
1046 1 8.67552164008 15.7071218592 1.61553671366
1374 1 11.4104843528 15.7033738625 1.59358447346
1002 1 10.0512242428 15.4864034001 3.63897849252
1329 1 12.7499691444 17.7458428154 1.79733701894
1702 1 14.1214003316 15.7598609639 1.56533946104
1330 1 12.8117669667 15.4878623364 3.63439658834
1657 1 15.556172144 17.7874039673 1.81012652663
2030 1 16.9014455588 15.7942829315 1.59937481584
1985 1 18.6510732657 17.9898829226 1.84276584473
1986 2 18.617629447 16.0720289747 2.96138956043
1658 1 15.4208578078 15.5427039931 3.60525626704
2869 1 19.9156648073 15.9239998762 1.1276040413
2351 1 21.6119710448 17.9263242765 1.79217085663
2360 2 21.9440695376 15.5488948886 2.53251186533
2870 1 21.9633612873 15.9737693657 0.0368412176926
2824 1 24.3945649629 14.6402080655 3.30005608531
3006 1 25.7190274667 16.6858264122 2.71135368057
2641 1 24.4444171276 16.5649669322 0.396538266441
2313 2 23.9128461252 18.0229617505 2.49355261431
3342 1 28.5646570602 14.6437613749 0.653437256587
2970 1 27.2716755537 14.8860139267 2.72256482829
3298 1 29.9576797737 14.8877063112 2.68568785345
3297 1 29.9760056872 16.599097809 0.449765757857
3334 1 28.561990694 16.9045224201 2.4463788277
2969 1 27.1000000068 16.5987505444 0.48941184198
3670 1 31.4039842797 14.6431221002 0.663404595953
3998 1 34.1784880384 14.6428389155 0.671806250792
3626 1 32.7775816183 14.8844241585 2.6724668481
3625 1 32.8281975764 16.6586060658 0.441268147411
3662 1 31.3951583965 16.8853380349 2.4375782705
3990 1 34.1917585941 16.8804875685 2.45738805114
3954 1 35.5693716123 14.8576482133 2.6792661051
3953 1 35.5996864486 16.5927630628 0.475602831606
4318 1 37.0024548873 16.8303134121 2.49315963779
4282 1 38.4060904989 14.8129563605 2.72054873495
4610 1 41.093554472 14.7811100058 2.74939894189
4646 1 39.8046278808 16.8303721665 2.55261385069
4609 1 41.1609713994 16.6112600272 0.525101756946
4281 1 38.4111428666 16.5871824061 0.509153484213
4974 1 42.480210397 16.8259507328 2.6210702314
4937 1 43.8095875608 16.5342479055 0.660442188155
49 1 44.7873720875 16.2079996501 2.86202984672
573 1 3.31447474598 19.9611096667 1.66918063825
205 1 1.39732940676 20.2697216018 0.0849335793781
244 1 1.85837954805 21.8085809754 2.10975877658
901 1 5.83737836232 19.7002458023 1.92967879784
859 1 7.20418565022 21.7606083697 2.19281009059
531 1 4.62577750457 21.8241857827 2.10010310294
1229 1 8.60475939461 19.7522111934 1.97539543366
1187 1 9.98895106099 21.7706019005 2.22564710188
1557 1 11.3838618575 19.7649428321 2.01036186904
1885 1 14.1323468399 19.7638757658 1.9776040527
1515 1 12.7712764257 21.7821802276 2.22006684237
2213 1 17.0520077103 19.7304929425 2.09959186619
1843 1 15.5175744161 21.7732024912 2.1404668695
2171 1 18.1897922424 21.8159449033 2.20160583119
1845 1 15.6303197456 19.9583467791 0.0319966276367
2173 1 18.5485820277 19.9704666864 0.107416825863
2828 1 20.1528174531 20.0215070859 1.95244339834
2314 2 20.5398539492 18.6211607091 3.62223283597
2541 1 21.5513933874 20.2258823187 0.0995484644502
2539 2 20.0193321511 21.9168810529 3.36470242006
2868 1 23.2107690405 20.2148239184 2.01813644856
3196 2 25.7607546484 20.8862254327 2.1364902806
3157 1 27.1593392392 18.8386060657 2.19063548696
3485 1 29.9779377508 18.8812326987 2.24139197694
3524 1 28.5579398606 20.8475473212 2.04148477286
3526 1 28.5596545969 18.5783516089 0.213906782673
3551 1 30.006863818 20.5781439427 0.0649314407042
3223 1 27.1899552805 20.5497869953 0.0267481407752
3854 2 31.271914669 18.5937117317 0.256469761463
3813 1 32.8030911661 18.8694448473 2.24773389549
3852 1 31.4296017382 20.8725030687 2.06282809398
4180 1 34.2358969769 20.8496535333 2.07262265488
3879 1 32.8303334684 20.5763523572 0.0877079579399
4182 2 34.3712378458 18.7040128211 0.37202436599
4510 1 37.0154705505 18.5897096087 0.29899705012
4141 1 35.6433180912 18.8545881787 2.32507463928
4508 1 37.0310184929 20.8626274425 2.08884301055
4207 1 35.6509853269 20.6307458461 0.0756129877272
4797 1 41.1867220201 18.8369387346 2.36988528784
4469 1 38.4153634795 18.8447893792 2.31590465045
4836 1 39.8328217058 20.8520743906 2.08683201492
4838 1 39.8088863009 18.6184990944 0.318923650098
4863 1 41.2239212303 20.630216025 0.0701650879119
4535 1 38.4044116439 20.6072563606 0.0814065951512
246 1 45.3098034138 18.5263880559 0.629462383721
245 1 45.3778640906 20.8836652985 2.29557384565
5125 1 44.0371080617 18.7710058698 2.5585260671
5164 1 42.5851571439 20.7828765697 2.07579702803
5166 1 42.6050881859 18.6230445434 0.42102230411
5191 1 44.0990331168 20.5801520535 0.167888219916
572 1 3.06034015212 22.0373185959 0.10724413674
569 1 3.16861415646 23.8458439197 2.29483241705
627 1 1.64296774141 24.13151936 0.255081799634
5122 1 0.386713235261 23.6786785861 2.10039335236
5190 1 0.0328442686956 22.3435825349 0.00660487090019
900 1 5.89464103904 22.0483418333 0.100509793955
530 1 4.45793136056 24.0656139519 0.35340987377
858 1 7.24616230274 24.0456186314 0.430543541628
897 1 5.86447155381 23.8378918588 2.41078902461
1228 1 8.60014585483 21.9912703232 0.195280459482
1186 1 9.98909006285 24.0093332375 0.453568133863
1225 1 8.58778124436 23.7775130187 2.47004150737
1553 1 11.3744343988 23.7847566814 2.47094241513
1556 1 11.3854778811 21.9939674226 0.208945690351
1884 1 14.1764888057 21.9769411203 0.177582224331
1514 1 12.7836153807 23.9956832707 0.449174625868
1881 1 14.1545241248 23.7977365541 2.4525903723
2212 1 17.0209276623 21.9403526974 0.185514519817
1842 1 15.6015815141 23.9621931237 0.466792562751
2170 1 18.3436443622 23.9395134252 0.538828493469
2209 1 16.947488217 23.7870617857 2.54655068904
2540 1 19.8937241481 22.023936541 0.501110786797
2495 1 20.016953767 24.0929183807 2.39955011439
2494 1 21.9738751646 22.2104124803 2.17104891946
2537 1 21.2195597263 24.0095948072 0.243243488369
2923 1 22.9054669742 24.5356671574 1.75468840204
2826 1 24.4084351314 22.7023802997 1.86744246716
3192 1 25.7720335987 24.8266827714 1.56978133139
2859 1 24.3329486362 25.5222781712 3.39786558924
3154 1 27.1910136234 22.8560829709 1.83505483961
3478 1 30.0271235217 25.1111132285 3.60243606442
3482 1 30.0127529701 22.8484115759 1.85744747167
3520 1 28.6112461443 24.8586814396 1.62476928144
3150 1 27.1528958024 25.1731186559 3.56527187875
3806 1 32.8771017104 25.1088400261 3.59902246107
3810 1 32.8501585025 22.8558923315 1.8480594538
3848 1 31.4517528423 24.8499853821 1.61989063868
4176 1 34.2813699499 24.8771395445 1.60620053928
4134 1 35.6788653873 25.0911925461 3.60123477698
4138 1 35.6478577905 22.8595240375 1.84683373645
4504 1 37.0379585486 24.8499253182 1.60187119495
4462 1 38.4756885848 25.0926843802 3.56974505618
4466 1 38.4282940466 22.843675703 1.8388337804
4794 1 41.2179552127 22.8191363286 1.77768895029
4832 1 39.7871510396 24.8195957864 1.56176178568
4790 1 41.3106653604 25.2446748174 3.41911251722
5160 2 42.5486114372 24.7611266684 1.42239148147
5161 1 43.8914377045 22.7922482098 1.75321925507
5118 1 44.3013198992 25.5112861241 3.0796238294
242 2 0.0931336804229 25.9476949036 1.20299851835
198 1 1.65654065989 25.7280984397 2.79856514028
568 1 3.05871171969 26.0754899302 0.748399670513
563 1 2.99118670229 27.79044356 2.92213920363
197 1 1.49736614388 28.0058004579 0.861074688193
241 1 0.112297438401 27.6801588236 3.13310400045
526 1 4.4549859584 25.8472834904 2.68928084043
525 1 4.44982283642 28.0818068451 1.00348730385
853 1 7.20574125705 28.0698195001 0.935176666206
854 1 7.25051838994 25.8207740131 2.67780284851
891 1 5.85145412332 27.8355770104 2.96533617251
896 1 5.83397888679 26.0644633347 0.68281806333
1181 1 9.99792239953 28.0352994037 0.938574303251
1182 1 9.97171564285 25.7902671039 2.7158933248
1219 1 8.61153000566 27.8231944065 2.94905991662
1224 1 8.60171566124 26.0476522558 0.672410668114
1552 1 11.3871483322 26.0102188141 0.707084928277
1547 1 11.3668916256 27.8004590911 2.96716766677
1509 1 12.7788517742 28.0120928085 0.967490223379
1510 1 12.7645490215 25.7952053538 2.72436987565
1875 1 14.1554876523 27.8001513903 2.99523390992
1880 1 14.189535791 25.9874615359 0.726810170606
2166 1 18.2979319355 25.7347304107 2.80913163603
1837 1 15.5613464295 27.9970775535 1.00989602555
1838 1 15.567184897 25.7990380571 2.77296229942
2165 1 18.3401313063 27.9475313087 1.08856880403
2203 1 16.9858616565 27.8015867013 3.03040963821
2208 1 16.9452413373 25.9682892158 0.765453296372
2536 1 19.668204367 25.9056320526 0.741162171402
2589 1 19.9315662593 27.4890100157 3.10703882667
2551 1 20.9366062995 27.8486606974 0.996595597188
2531 2 21.8352375769 25.5992364908 3.61731487171
2487 1 22.8443211235 27.8104296729 2.95730203004
3186 1 25.9580160517 29.0048359396 1.29720744558
3251 1 24.4287144266 26.829676174 1.02860302651
3187 1 25.799511661 27.2678895584 3.21608259726
3149 1 27.2083442878 26.8900622985 1.30626884264
3471 1 30.0992236729 29.1049207081 3.15987922158
3477 1 30.0339692628 26.8465961139 1.35829542082
3514 1 28.7093074237 28.9063270178 1.2189534373
3515 1 28.6207999558 27.1248140752 3.33935957618
3143 1 27.3129254744 29.1843316846 3.2148807413
3799 1 32.8974890477 29.0757340023 3.10613589771
3805 1 32.8749278004 26.8602179043 1.36447134407
3842 1 31.4433400029 28.8569340886 1.11477966367
3843 1 31.4706153705 27.0846987555 3.35458938313
4170 1 34.2919043475 28.8480003946 1.10136572009
4171 1 34.3177274558 27.0878980815 3.35379145879
4127 1 35.7154170828 29.075654105 3.09910287887
4133 1 35.7074701143 26.8660164074 1.36236667506
4498 2 37.0505987012 28.9414977908 0.982058204935
4499 2 37.0992294166 27.0492582924 3.48571375292
4455 1 38.4669507891 29.1139486648 3.09557307617
4461 1 38.3987163853 26.8576854147 1.36246318631
4789 1 41.1127432006 26.7577508187 1.35442049523
4826 1 39.757385972 28.8113285025 1.04229179463
4827 1 39.8077051327 27.1254953166 3.33998256443
4783 1 41.1397286773 29.1924131581 2.91550555471
240 1 44.5258007391 27.8758309376 1.15515128283
5154 2 42.422328187 28.5241971415 1.10847526301
5155 1 42.8052039568 27.3614818669 3.21079156014
289 1 0.29405570935 30.0441080203 1.34630607633
191 1 1.56722887521 29.685204577 3.29207792787
293 1 2.92400582494 30.0347128311 1.23778896817
227 1 1.54679715854 32.0989902463 1.61603854682
555 1 2.92415699008 31.7258665866 3.57788560963
518 1 4.32809241899 32.0719452371 1.53359138131
519 1 4.39953922737 29.7984137366 3.21160868238
846 1 7.20234479555 32.0608699533 1.47732563957
847 1 7.2319434244 29.8399563767 3.2086068278
890 1 5.79973864525 30.0894651209 1.23030618648
883 1 5.80832611725 31.811155749 3.45620261761
1174 1 9.98268861895 32.0528698303 1.45006543859
1175 1 9.99227384736 29.8212665568 3.21383169633
1218 1 8.61034127122 30.0584014939 1.20403320183
1211 1 8.62601209323 31.8279904087 3.46672355752
1546 1 11.3752495231 30.0391559172 1.20404458651
1539 1 11.3411082538 31.8286798761 3.46501322304
1502 1 12.7446996999 32.0393395373 1.45422426199
1503 1 12.7418175248 29.8175050424 3.22391458889
1874 1 14.1561519181 30.0232943668 1.23119321735
1867 1 14.1286134262 31.8148292814 3.45606257803
1830 1 15.5440071224 32.0402242799 1.48254384526
1831 1 15.5497733173 29.7971481939 3.2451694507
2158 1 18.3626124135 31.9883380143 1.52848320173
2202 1 16.9467857455 30.0032946373 1.28162302516
2159 1 18.4622665062 29.7954445804 3.30240554
2195 1 16.94036301 31.7920773072 3.45757232126
2814 1 19.6463026989 29.928388617 1.251028564
2851 2 22.1187214084 29.7416123732 1.29006967281
2843 1 21.0530158206 29.5925260705 3.28431369555
2530 1 21.0239120762 31.7951735705 1.36310851399
2523 1 19.8638509986 31.9062557414 3.53839868079
2488 2 24.6616348283 29.386704086 3.3772443684
2806 1 22.9808614439 31.1833460045 3.01710112848
2815 1 25.9003008909 31.2221736697 2.96130419066
3179 1 24.4682880018 30.8748051415 1.06573334152
3178 1 25.7992780821 32.8619976356 0.642920345548
3142 1 27.2876034498 30.9608996267 0.902750107777
3470 1 30.1157129682 30.9183128079 0.890066092244
3507 1 28.7188701282 31.1196188049 2.86479656009
3506 1 28.6689516104 32.8927089857 0.573707366714
3798 1 32.8587461767 30.8489942847 0.843107590649
3835 1 31.505723841 31.1004234305 2.88444914835
4162 1 34.2397895119 32.8554017642 0.58446646795
3834 1 31.479549781 32.8941268064 0.592861992001
4163 1 34.2860010354 31.0655031026 2.85482688677
4126 1 35.6405662729 30.8708328801 0.827579520434
4491 1 37.0551787741 31.0814788244 2.83449296449
4490 1 37.0335893144 32.859531092 0.580047897835
4454 1 38.4558115031 30.8611450381 0.813906568417
4782 1 41.2163860427 30.8102585491 0.951748851526
4819 1 39.8016040687 31.1646392555 2.82974819037
4818 1 39.7670350767 32.8606608676 0.585575929183
235 1 44.2386792274 29.5159168217 3.02103621601
5111 1 43.7309935251 30.4789853373 0.752504257953
5147 1 42.8491073878 31.535248794 2.99409015014
5146 1 42.6638377281 32.7054310056 0.521228668094
5110 1 44.7299879271 32.3489937465 1.80802781473
554 1 2.92520611833 34.1066498901 1.80070622948
247 1 0.171725405099 34.4563657218 1.90342837298
509 1 4.35611661575 36.0312815152 1.85789988199
837 1 7.14803509896 36.0512459714 1.91255327497
882 1 5.76392281999 34.0402279227 1.72405235476
1165 1 9.93089525124 36.0515401406 1.89305589087
1210 1 8.55690371088 34.0567643481 1.66039159267
1538 1 11.3619145303 34.0477682399 1.65111557923
1166 2 9.95976507413 33.9246569817 3.59546619512
1493 1 12.7301604842 36.0407574246 1.88888392209
1866 1 14.1424458612 34.0405629936 1.68642100524
2149 1 18.4636397136 36.0068346607 2.01071882208
1821 1 15.5538579347 36.03095994 1.86400682488
2194 1 16.9968073167 34.0413283449 1.67221178665
1822 1 15.5440497297 33.8113794322 3.65554517068
2477 2 20.9312361862 36.0401379283 1.77871527548
2522 1 19.6404532948 33.9249793044 1.74321996259
2514 2 21.8757278408 33.2583364906 2.72893624083
2913 1 21.443618321 34.4480460227 0.230069363402
2850 1 23.2903860243 33.0085893747 0.845233899264
2836 1 24.4624663756 33.1731037476 2.81019377158
2798 1 23.0195944689 35.237478729 2.52952158142
3170 1 25.8874954939 35.0726791049 2.36406315805
2842 1 24.4175660598 34.9281287716 0.373280775529
3462 1 30.0869613111 33.1123557301 2.60399248138
3134 1 27.314767058 33.126288487 2.59224017799
3133 1 27.226201927 34.8536868023 0.324917722723
3461 1 30.0550645204 34.8882021139 0.332847667865
3498 1 28.6677214548 35.1132519225 2.35186292076
3790 1 32.8814776281 33.100374021 2.60862108613
3789 1 32.8624589557 34.8903493196 0.348879916967
3826 1 31.4686398473 35.1144147591 2.35922663562
4154 1 34.2599152371 35.1174612361 2.36620951629
4118 1 35.6373601253 33.0788958926 2.60087952993
4117 1 35.6115056135 34.8562946073 0.333354258226
4482 1 36.9623871328 35.0792524226 2.37289698514
4633 1 41.8050838832 36.3967319666 2.14115386229
4774 1 41.1119987538 33.195755534 2.48277607156
4446 1 38.3931105473 33.1157042574 2.60660724636
4810 1 39.6986613398 35.129001608 2.33995142072
4445 1 38.4000577387 34.882840382 0.337979966438
4773 1 41.3243853684 34.7459997748 0.368397715296
82 1 45.6516387663 36.5273400477 0.00819616785146
5002 1 42.9272507451 36.5316866296 0.0443537469862
4961 1 44.3380783208 36.5356524609 2.08385985268
5138 1 43.2119121915 34.3931398247 2.21671518579
5101 1 44.3161910824 34.4671316781 0.012843420856
40 1 3.02701917321 3.27326386292 4.25355446503
540 1 3.00400030068 0.979216904367 6.18284473506
174 1 0.209971303229 0.707177336761 6.14005111961
402 1 1.57382010814 2.78125655999 6.43976197976
406 1 1.54720526988 1.43798724684 4.20521823328
407 1 4.26756934154 3.13303511627 6.41128769545
368 1 4.49505665729 1.24573101094 4.28833034373
692 1 7.15501996956 3.05900291839 6.37724235339
696 1 7.11986151985 1.27849230306 4.13809860653
735 1 5.78010985833 1.03650836336 6.2156449973
734 1 5.75326994765 3.32841058229 4.38596044126
1020 1 9.92802989946 3.01160545948 6.35649106475
1024 1 9.9229996313 1.26391570336 4.13116162911
1063 1 8.54904515117 1.02899288354 6.15665778815
1062 1 8.54369243586 3.2995467445 4.34428552254
1390 1 11.3119531678 3.24304475664 4.34233668581
1391 1 11.3336371194 1.00810189433 6.14336377553
1348 1 12.721449231 2.98841044278 6.3386482636
1352 1 12.7178087596 1.24806353448 4.10955992855
1719 1 14.1188963936 1.01209366517 6.09535932452
1718 1 14.1053353765 3.24080872812 4.34746044449
1676 1 15.5738150308 2.99609188861 6.34402822377
1680 1 15.531105874 1.28266340422 4.09098852884
2008 1 18.5772291779 1.19743688407 4.1683304003
2047 1 16.9316442478 0.995297589309 6.00393066038
2369 1 18.4686015205 2.91357248033 6.39585015243
2046 1 17.0607150728 3.19052963677 4.33463455594
2697 1 19.7463223533 3.41467714125 4.46366535208
2662 1 22.3667877923 2.98315985626 4.76734089206
2325 2 20.9994140879 3.0659222202 6.59785484162
2333 2 23.3364701777 0.788492838666 4.02246063779
2701 1 24.5765253588 2.82176894753 3.96856677374
3033 1 25.8959755075 0.763057171347 4.19353998386
2704 1 24.3242739027 1.05821768129 6.12075188596
3030 1 25.8996031214 2.98545556402 5.94656757157
2991 1 27.2455360756 2.80058948405 3.93558929255
2992 1 27.2710385809 0.982459625861 6.18059481405
3319 1 30.0523621569 2.77799995829 3.94765760426
3320 1 30.0499803933 1.01459462001 6.17734495346
3358 1 28.6465198863 3.01600613936 5.96218983029
3361 1 28.6538432404 0.776587295049 4.15511104819
3647 1 32.8280024905 2.81070290348 3.9558017282
3648 1 32.8254992727 1.04027584588 6.18494911249
3686 1 31.4204521698 3.04006718772 5.97994376569
3689 1 31.4533065526 0.785962896326 4.15593830674
4014 1 34.2148892651 3.05682903545 5.97222136727
4017 1 34.2384532726 0.818635896505 4.16554806788
3975 1 35.643153389 2.83924544614 3.96112404632
3976 1 35.6141555877 1.0436689143 6.17900184066
4342 1 36.9640798291 3.08613617539 6.02143422967
4345 1 36.9965409587 0.817271058896 4.17488586623
4303 2 38.3213065857 2.86929202351 4.18835492596
4631 1 40.9597261 3.00410537069 4.02140870165
4304 1 38.424548707 1.08057176331 6.15658141845
4632 1 41.0441746214 1.18695679193 6.15382783118
4670 1 39.7214535651 3.17137284049 6.04134571073
4673 1 39.7561411997 0.840782595744 4.05679344214
218 1 44.8821081883 1.28760831069 4.0058827826
79 1 45.1045739022 3.13144084758 5.86580891575
4959 1 43.7274044185 3.24848525935 3.98012553836
4998 1 42.2674754081 3.28237920958 5.92838635604
5001 1 42.4200450016 1.05930418112 4.09794066848
37 1 43.6327288396 1.40712196975 6.1400034096
78 1 0.58955208548 3.73226749396 3.81030602994
401 2 2.19332707831 5.57654844622 4.4652913676
72 1 0.276513639028 7.24430320358 5.02568679324
363 1 4.42132018449 5.33101868339 4.50488704946
691 1 7.1585855261 5.31815039098 4.53552393054
729 1 5.79618404257 5.07286568202 6.550532274
685 1 7.19011834258 7.07219199144 6.78373681908
357 2 4.49338262308 7.14182077283 6.80973645403
1019 1 9.99423109132 5.28953833086 4.55148589618
1057 1 8.58253967039 5.05379953764 6.55162308826
1013 1 9.98583356511 7.02689660605 6.7909082334
1056 1 8.60318543307 7.27637563282 4.78219892967
1385 2 11.3197856472 4.90026654682 6.65455725901
1347 1 12.6485492836 5.23721083672 4.55570461351
1713 1 14.0873040908 4.97602327581 6.54698263685
1341 1 12.6630267466 6.95713487894 6.75950005454
1712 1 14.0480320316 7.16304629176 4.77099825131
1675 1 15.511226358 5.16160655431 4.54417951213
2041 1 16.9802934012 4.95494515465 6.52408562564
2003 1 18.3693519078 5.25911974837 4.52649141983
1669 1 15.4639098367 6.93593486355 6.73480199453