ITEM: TIMESTEP
4000
ITEM: NUMBER OF ATOMS
5248
ITEM: BOX BOUNDS pp pp pp
0.0 45.68
0.0 36.5618393957
0.0 36.5618393957
ITEM: ATOMS id type x y z
409 1 3.19673821775 1.52722140205 2.02772059331
39 2 1.76131612404 3.19733123339 2.12315725073
41 1 1.47816222398 1.79176505847 0.0854553159218
697 1 7.23490139256 1.86475721997 0.125797841305
737 1 5.84801284774 1.64267077095 2.12596925595
695 1 7.22563524774 3.62590965156 2.33563374231
369 1 4.51984244281 1.78421223696 0.0641061639968
1025 1 10.0675494703 1.83915940817 0.0951455352777
1065 1 8.66527363574 1.62098358323 2.13292341486
1023 1 10.025743678 3.62288326666 2.38501790609
1393 1 11.388138971 1.58846212954 2.18078351211
1353 2 12.7980635143 1.88107264224 0.260045022625
1721 1 14.1914839848 1.57671395098 2.19597721831
1351 1 12.8000085472 3.59877136565 2.39523897997
1681 1 15.5439028897 1.78129494334 0.142533981688
2049 1 16.9244911381 1.58418289937 2.16240087914
2009 1 18.3804876788 1.75112263409 0.178771129642
1679 1 15.5686598853 3.60391426498 2.4080430258
2007 1 18.3484003177 3.56742392523 2.40171457654
2377 1 19.7745698358 1.57140814646 2.18238494039
2336 1 22.6579724104 1.82435000482 2.23973215627
2337 1 21.2342067027 1.76813919852 0.267106042893
2335 1 21.1303788799 3.65303955517 2.41209915962
3032 1 25.6981808127 2.16234853147 1.96544459934
2731 1 24.1028236437 1.90876430197 0.180453107285
2665 1 24.407244904 0.203601201056 2.08363892708
3034 1 25.6896947984 0.0554522556845 0.0318508883256
3360 1 28.6668614073 2.12571896974 1.73565928815
3321 1 30.0718848727 0.305789985152 2.01540987336
2993 1 27.1958308077 0.200947872038 2.00347846337
3649 1 32.804649027 0.396612569497 2.03399009137
3688 1 31.3615275292 2.40432014792 1.7957959425
4016 1 34.2034560278 2.39685090866 1.82312056921
4018 1 34.2079847659 0.185633419145 0.0398654819261
3977 1 35.6372218588 0.401620051807 2.05939097036
4344 1 37.046931863 2.39914948095 1.84618684898
4346 1 37.0355544568 0.20066005301 0.0560214007613
4305 1 38.4580889209 0.40241841995 2.04395555097
4672 1 39.876518775 2.35360721786 1.85516644997
4633 1 41.3386167449 0.324321028848 2.03397138902
4674 1 39.8944002141 0.185679418367 0.0349671877693
81 1 45.5170388676 2.01189635085 2.003620263
5000 1 42.698981934 2.35804308233 1.84146927134
4961 1 44.1558607218 0.104617206486 1.94486942774
5002 1 42.7597125343 0.0990026165751 0.028142025488
408 1 3.05182056073 3.66252603749 0.16031950732
36 2 3.28387560782 5.7857323429 2.9585324152
77 2 0.0685369930591 5.7408864822 3.41103156075
367 1 4.37438474254 3.6603581201 2.28640557097
366 1 4.07133540667 6.04885593394 0.564467851343
694 1 7.15453788484 5.85318740105 0.594928945633
733 1 5.77079832579 5.6409073762 2.57845000721
736 1 5.75029602238 3.90603180464 0.360893423778
1022 1 10.017388337 5.84915502069 0.621431355628
1061 1 8.57673718624 5.60747627623 2.61796980963
1064 1 8.62833896608 3.84997834412 0.349909221652
1392 1 11.4086239717 3.83980493153 0.355857010209
1389 1 11.43371568 5.61330886227 2.63027429467
1350 1 12.8013797509 5.81118307283 0.621728023903
1717 1 14.1927300049 5.61622203626 2.63530957872
1720 1 14.2029186611 3.82034890663 0.376453596286
1678 1 15.6291101734 5.7767465954 0.62182036735
2006 1 18.4122698304 5.76867024597 0.542221338017
2045 1 17.0014135333 5.59038927165 2.65000102426
2048 1 16.9887784034 3.77447276089 0.381862122949
2376 1 19.7793754139 3.73134222119 0.339066076168
2373 1 19.7123568901 5.54216347907 2.53806697515
2387 2 21.058168498 5.54126314128 0.58033350827
2767 1 22.6303174182 3.84834430645 0.460140721504
3029 1 22.4882362974 5.74914950168 2.69858160363
2663 1 23.9068373225 3.80543601187 2.50344512874
2695 1 24.775883369 6.5878120812 3.22767827556
2722 2 24.3131956764 5.55697315533 1.29886585681
2702 1 26.1023253166 4.57743244439 3.4511674158
3028 1 26.5650646566 6.07487746453 1.13994346899
2986 2 27.1969851331 3.76180777998 1.45886430682
3318 1 29.892672482 4.36160294208 1.65378484954
3356 2 28.8252563424 6.53329901694 1.446191684
3023 1 27.3483395501 6.72259237672 3.43089749637
3314 1 30.1305970451 6.67375262643 3.43094552853
3646 1 32.7848375761 4.39003941792 1.6108038674
3684 1 31.3784248662 6.37733776075 1.36926122877
4012 1 34.2146241411 6.38395051334 1.36445439157
3642 2 32.8183886723 6.51611331508 3.30263085202
3685 1 31.4089550008 4.60106954111 3.62020065202
4013 1 34.2305989576 4.59720597099 3.62502905417
3970 1 35.5951074976 6.60945274356 3.40337174653
3974 1 35.6200945818 4.38732851116 1.61453758159
4340 1 37.0199119318 6.37883250231 1.39715350081
4341 1 37.0359689035 4.61337989548 3.64128877156
4298 1 38.4217737715 6.5977665782 3.41139105319
4302 1 38.4588565809 4.3794635934 1.63038702443
4630 1 41.2089139864 4.35129640948 1.64638611282
4668 1 39.8261576234 6.37438663792 1.38658922192
4626 2 41.1326529245 6.65380244721 3.47475877515
4958 1 44.0711485469 4.47684884586 1.87054254567
4996 1 42.523986398 6.40887914502 1.47670909252
4954 1 43.8044997933 6.75965918348 3.47555033645
80 1 45.6996061851 3.93220595266 0.160220791078
70 1 1.64193708432 7.57103258825 3.13589471083
38 2 0.648371822744 8.01029058712 1.16375857328
33 1 0.689666894561 9.92728086438 2.50911646558
404 1 2.85098620445 8.59312826446 1.15725219123
392 1 3.0323924794 9.72683774608 3.30271890628
362 1 4.38960070992 7.71551451113 2.92375706525
361 1 4.68912841387 9.9219646616 1.20627784769
689 1 7.18647008392 9.84635053958 1.08704095403
690 1 7.16328923518 7.61610470817 2.88240104001
727 1 5.84583516692 9.64043827721 3.23091942926
732 1 5.73211791024 7.82204587599 0.838464169795
1017 1 10.0261112023 9.81147099472 1.06267092397
1018 1 9.96556946606 7.55248718986 2.8460567078
1055 1 8.62512100647 9.60648597127 3.10485950092
1060 1 8.56984849813 7.84249161812 0.843253518165
1383 2 11.2543751059 9.37947509934 3.0898086386
1388 1 11.4408165302 7.85133901042 0.863988679074
1345 1 12.81105447 9.8553129831 1.20966299533
1346 1 12.848713916 7.63564051985 2.85818083592
1711 2 14.3606428869 9.56174322269 3.35952614243
1716 2 14.225029873 7.72931658884 0.770123863111
2002 1 18.3747043233 7.5322647282 2.98670087633
1673 1 15.5795735281 9.74211712046 1.15408557501
1674 1 15.6088361262 7.56527588194 2.90628325147
2039 1 16.9510500172 9.5516100918 3.20572765086
2044 1 17.01040532 7.76393207993 0.884745196441
2001 1 18.2780759355 9.7209730126 1.22971170294
2759 2 21.1714391638 7.59133611822 2.93050604716
2334 1 19.6923790066 7.70458583797 0.982677072474
2367 1 19.6855555469 9.51145686034 3.1841040916
2372 1 21.3003120718 9.47969595381 1.41252529626
2323 1 23.1203908369 8.70350175463 2.96212548985
2059 1 24.7678796865 8.00462151395 1.14515167556
2715 2 23.6042501077 9.99640448438 0.897509368275
2657 1 25.937517379 8.69246317685 3.15977035653
3022 1 25.9374288765 10.3713620241 0.965825809537
2643 1 24.30313371 10.8513228648 2.89841437412
2979 1 27.2612304642 10.6813840726 2.93797729098
2985 1 27.310209553 8.42527963783 1.17351626023
3307 1 30.0791154008 10.6534097213 2.92671514961
3313 1 30.091563995 8.46712639483 1.15025477037
3350 1 28.631526456 10.4419654033 0.884815859822
3351 1 28.7258215649 8.67234885324 3.15103248695
3635 1 32.850661118 10.6474350284 2.95738578299
3641 1 32.8001142985 8.38408400515 1.15395056724
3678 1 31.4587555409 10.4315730144 0.924496282524
3679 1 31.4943708448 8.64761014774 3.17682617715
4006 1 34.2038748209 10.3962673296 0.935829227893
4007 1 34.1915758723 8.60674703438 3.1805301723
3963 1 35.5942716165 10.6107377346 2.95291488424
3969 1 35.5936645791 8.38436799731 1.17423711191
4334 1 36.9937705485 10.3889825351 0.931814181934
4335 1 36.9916394773 8.59687487295 3.18164017224
4291 1 38.3556739121 10.6179208536 2.96491297203
4297 1 38.4072282606 8.37516338659 1.16435548401
4619 1 41.0845944346 10.6370235918 2.98760492599
4625 1 41.1574601572 8.40339679922 1.19283338778
4662 1 39.7533423916 10.3998482746 0.948200883876
4663 1 39.7445715887 8.62818983295 3.20266557789
71 1 43.9624307294 8.41244737941 1.3525502297
4953 1 42.449896638 10.428210539 1.01151187886
4991 1 42.4428476094 8.66836921042 3.24075895966
129 2 44.819912885 10.7048048197 1.0230544077
4946 1 43.8619111043 10.5744076016 3.06789335641
398 1 2.88258169388 11.4971790095 1.43043877791
26 2 1.69806570519 13.757518858 2.26973166706
128 1 0.780465871633 12.3287515745 0.817070713781
399 1 1.69786694799 11.7758110801 3.59122136467
354 1 4.30198056589 13.7798686006 1.82563389536
355 1 4.40046600662 11.6571913241 3.49186129339
682 1 7.28882419262 13.825205549 1.6246995444
683 1 7.28727575978 11.609911441 3.39113420548
726 1 5.83447362601 11.9028584746 1.47890455296
719 1 5.87867121966 13.6060180454 3.62072762566
1010 1 10.0190160077 13.8307106877 1.57685835827
1011 1 10.1175710523 11.5791131687 3.38168564337
1054 1 8.67138876851 11.7922639114 1.39948812506
1047 1 8.67996146626 13.6039339112 3.58164317372
1382 2 11.2272074881 11.9061348006 1.23195449881
1375 2 11.2443581257 13.8233178073 3.62777955044
1338 1 12.8008051472 13.7040889312 1.65663607412
1339 1 12.7313181871 11.5874990186 3.27494999502
1710 2 14.3404856469 11.7904243803 1.17305434885
1666 1 15.6124257983 13.7783369179 1.58611676185
1667 1 15.5687758197 11.5776857268 3.35036310909
1994 1 18.30242635 13.7182441429 1.60300266856
1995 1 16.9828802352 11.7476867113 1.35059197728
2031 1 17.0006559534 13.5301911204 3.63146018022
2366 1 18.3544622216 11.54416677 3.40709446825
2329 2 19.6856651904 11.6006986314 1.48728350945
2687 1 20.9892014035 13.6292198741 1.28625893373
2688 1 21.2630481679 11.3154068797 3.23526299189
2359 1 19.9228737498 13.4196446303 3.42817595103
2421 1 22.1571739773 11.6538920355 1.0332947642
2694 1 22.8859734793 13.0407908355 2.93422570337
2642 1 25.8414241103 12.6860102374 2.72736985812
3014 1 25.7352081213 14.5776064479 0.492443309833
2382 1 24.4708732709 12.4208787657 0.753963359395
2381 1 23.1691255504 14.5172509419 0.771273702296
2978 1 27.2042613436 12.4743747978 0.745098355154
3306 1 30.0389459621 12.4303253647 0.710131699169
3343 1 28.6594006171 12.6619375152 2.7275067067
3342 1 28.6350897111 14.4240545817 0.484825211557
3634 1 32.844372951 12.4381196829 0.721926949181
3670 1 31.4267399853 14.4412906655 0.521587411685
3671 1 31.4609897509 12.6643137529 2.73598107139
3999 1 34.2427620448 12.6628064715 2.73890584894
3998 1 34.2633282198 14.4502985808 0.531820129006
3962 1 35.6161603794 12.4142250034 0.719360242489
4326 1 36.9907375376 14.4322072801 0.511609247757
4327 1 36.9803595644 12.6442187615 2.74401361538
4290 1 38.3658215727 12.4210856047 0.715960958443
4618 1 41.1086073174 12.4275284978 0.731386735662
4654 1 39.7468790237 14.4389268079 0.542371679297
4655 1 39.6950431185 12.648227817 2.7452473351
63 1 45.1525686202 12.5465227136 2.72541265302
4938 1 42.380973069 12.6577191662 2.77251599499
4990 1 43.7673913562 12.6019209906 0.751214274748
4982 1 42.4110837412 14.46247515 0.564961007268
125 1 45.4423661903 14.5027875888 0.703572427682
27 1 43.8055154221 14.6063192292 2.59775019371
390 1 2.99475394981 15.8652706219 1.86520961562
17 1 1.60617235959 18.0034136141 2.44120881292
574 1 2.83504950376 18.0289537963 0.0489143322905
345 1 4.42828687073 17.8060106674 1.93798382002
673 1 7.22137621906 17.841620465 1.94753177669
718 1 5.81858820097 15.8031972647 1.73677907817
1001 1 10.0374506984 17.8210582887 1.98932521012
1046 1 8.62659487521 15.850443975 1.75878809273
1374 1 11.4390610014 15.7842693655 1.79599090162
1329 1 12.7839354968 17.8004729275 1.97890121958
1702 1 14.1478797331 15.7366575433 1.77919016981
1657 1 15.5042559682 17.7492270304 1.96535668854
2030 1 16.9516974465 15.7839623595 1.80536779961
1985 1 18.3100811701 17.7967153712 1.98495072659
2869 1 21.6046264957 15.2104875552 2.94365239026
2358 1 19.519765729 15.7499202267 1.77944190045
2313 1 21.0373126528 17.621005665 2.20939535622
2870 1 21.2430999527 15.995338041 0.304380948071
2866 1 24.5291894847 14.695993459 2.68770775127
2678 1 23.3145197694 16.6624984264 2.09650847387
3006 2 25.9966178928 16.5991076219 2.2248577424
2970 1 27.2585005906 14.6465965757 2.54236016331
3298 1 30.051515709 14.6607802224 2.52769966864
3297 1 30.0629244268 16.4369708347 0.282880369444
3334 1 28.6903370726 16.6609797758 2.34897740406
2969 1 27.3524335071 16.4351885466 0.30379996009
3626 1 32.8554667378 14.6753364546 2.52393097858
3625 1 32.8549407938 16.4399266929 0.305800530411
3662 1 31.4548647322 16.6681167199 2.32351094771
3990 1 34.2705416493 16.6869739273 2.31675884164
3954 1 35.6514568222 14.6980110324 2.52634667641
3953 1 35.6532462464 16.4662114409 0.306405639726
4318 1 37.0728600168 16.7271105741 2.30981339112
4610 1 41.0361129256 14.69169413 2.59084092969
4282 1 38.3471536683 14.6631666807 2.53706659956
4646 1 39.6574016562 16.7281392898 2.34423955466
4609 1 41.0704121138 16.4750378314 0.387210201339
4281 2 38.3851361448 16.3768720556 0.215475357732
62 1 45.2575147306 16.526282881 2.49694602474
4974 1 42.461402803 16.6505880339 2.41296065727
4937 2 43.7652057803 16.2488581442 0.464117567432
573 1 3.14321257453 19.825340023 2.13188650477
205 1 1.4579266717 20.0899290184 0.143738235421
244 1 1.74283247232 21.7623983186 2.20084346401
245 1 0.0638417145272 20.1040020455 2.3384349238
246 2 0.223286375607 18.3385132175 0.77788691777
533 1 4.38554666969 19.9879844523 0.121350017662
861 1 7.18089091159 20.0232958236 0.188341668765
901 1 5.806629154 19.8301587989 2.19311498793
859 1 7.20321085196 21.818261102 2.4302854768
531 1 4.41749436832 21.8353977941 2.39692636193
1189 1 10.0110027423 20.0574624208 0.192150663593
1229 1 8.63108251557 19.832939433 2.20465864444
1187 1 10.0081379344 21.8355011474 2.42556736289
1557 1 11.3796152423 19.8351826255 2.16626726664
1517 1 12.7701630747 20.0517764159 0.157363941906
1885 1 14.190458434 19.8151321727 2.15227625583
1515 1 12.7900198042 21.8304541842 2.41150459322
2213 1 16.8155710207 19.7871629485 2.09764852261
1845 1 15.4974099578 20.0265820795 0.117993134001
1843 1 15.5408519743 21.8374630978 2.4023952906
2171 1 18.245278591 21.7608598747 2.28520069928
2173 1 18.371952505 19.9862216587 0.191781285595
2541 2 20.9192968235 19.8422669385 1.02507541125
2501 1 22.355210099 21.8538434223 0.270284050279
2494 1 20.7789068827 21.7468871584 2.20434620184
3198 1 26.0183479725 18.4193382723 0.134805066699
2868 1 23.0855545195 20.5424941445 2.03933432464
3196 1 26.0202578782 20.6697841394 2.01633686601
2829 2 23.9112365419 18.493959248 0.547533708105
2500 2 23.1255176673 18.6460097033 3.37422898944
2895 1 24.5953541026 20.5723034743 0.042000196052
3526 1 28.7254611725 18.465144131 0.133890796198
3157 1 27.3817638536 18.6767050564 2.14894154375
3485 1 30.1012598994 18.697965398 2.14547607027
3524 1 28.741128102 20.7229516184 1.94301357372
3854 1 31.494643853 18.4505183152 0.112530347155
3813 1 32.842634119 18.6578487075 2.1449992571
3852 1 31.5462532905 20.7221613571 1.95241222378
4182 1 34.2534947002 18.4579466104 0.120560039644
4180 2 34.2617297719 20.5103344859 1.95224051895
4510 1 37.0311547362 18.4857757444 0.102041654236
4141 1 35.7023446568 18.6910726272 2.12187758928
4508 1 36.9734245268 20.8019969833 1.91013661945
4797 1 41.1227296093 18.6704650211 2.09382594313
4469 2 38.3972376184 18.930901286 2.08320097403
4836 1 39.8738450099 20.7633959583 1.87805137654
4838 1 39.7800498817 18.4991090652 0.0997919476027
5125 1 43.9152932989 18.5076658713 2.14149757786
5164 1 42.7798048579 20.6749149559 1.86577063515
5166 1 42.4954453451 18.4054399173 0.137810705388
572 1 3.00593310793 21.9667710571 0.235448376489
569 1 2.99399169323 23.7763799665 2.70265228355
627 1 1.65796858832 23.7695169793 0.656056760917
198 1 1.40132977794 25.5100766087 3.03694208705
5122 1 0.129585929659 23.4579249407 3.0039485865
530 1 4.45611878712 23.9110964913 0.652960550006
858 1 7.19281447991 23.9914612872 0.634948584147
897 1 5.81530844672 23.8056032985 2.6959585642
900 1 5.78071698073 21.9944794987 0.364045613966
1228 1 8.58517336958 22.0382291684 0.398650805781
1186 1 9.97974762884 24.0561013901 0.604109520698
1225 1 8.60914108097 23.8156132815 2.65649436055
1553 1 11.4017906334 23.828477975 2.63523679494
1556 1 11.3880394207 22.0663666998 0.396252897196
1514 1 12.7615217314 24.0572861636 0.596901373991
1881 1 14.165160293 23.8340438509 2.63418897098
1884 1 14.1488330529 22.0593916903 0.374493763765
1842 1 15.5462827637 24.0397160687 0.597541923816
2170 1 18.2617563001 23.9151461704 0.584474224663
2209 1 16.9259212957 23.8101137183 2.62014700108
2212 1 16.8882892413 21.9930124814 0.344062124094
2495 2 19.5333315509 23.7094519689 2.80187426275
2537 1 20.8879200032 23.9000733426 0.698925566413
2923 1 22.4025705177 23.4736794448 2.4542675943
2826 1 24.5359405735 22.509572603 1.66405842665
3192 2 24.4693169653 24.5606249408 3.00016027424
2886 1 25.4863952203 24.58744532 0.706653034551
3154 1 27.3329346876 22.7426718151 1.74913820888
3478 1 30.1101506319 24.9494475198 3.523437259
3482 1 30.1653489913 22.7037164633 1.76320692881
3520 1 28.793263152 24.6836889493 1.55095612163
3150 1 27.0859303679 24.9468784144 3.31061826852
3806 1 32.9122843874 24.9527533849 3.51596145741
3810 1 33.0083742971 22.7149475697 1.72532323465
3848 1 31.5660585317 24.7004153193 1.51628349882
4176 2 34.2979940784 24.9295419812 1.48340061656
4134 1 35.6799130898 24.8943500858 3.50271404148
4138 1 35.5407224666 22.7412063973 1.76363523306
4504 1 37.0335419404 24.7103002157 1.51884457078
4462 1 38.519275517 25.0106978475 3.48745767177
4466 1 38.4453405642 22.7530733931 1.68757899848
4790 1 41.2687704696 25.0232594563 3.54290727797
4794 1 41.3303476049 22.7258089343 1.77156138664
4832 1 39.9076781819 24.7538741193 1.5152929735
5190 1 45.6593324503 22.1000434736 0.356717543086
242 1 45.4371589615 24.9875773961 1.17483396828
5160 1 42.5654767836 24.831042667 1.54669068797
5161 2 43.8915730447 23.0005195249 1.86969610635
5118 1 44.1451944577 25.2593336179 3.30355751875
568 1 3.04390818719 25.7151126266 1.11462427049
563 1 2.82994392634 27.5816790329 3.0937389543
197 1 1.39283859665 27.398764303 1.12520027881
526 1 4.38320902897 25.7432367853 3.02020112815
525 1 4.23698607308 27.9255148792 1.12947761355
853 1 7.22203854367 27.9808725355 1.08827303641
854 1 7.23692197947 25.7944831661 2.93028788935
891 1 5.78782630967 27.7213903025 3.09166942617
896 1 5.82439304942 25.9777292186 1.01309541151
1181 1 9.97979778664 28.0501168983 1.04132840851
1182 1 10.0182709806 25.8232157155 2.84869878652
1219 1 8.63844743445 27.8061954025 3.09422080721
1224 1 8.5721608197 26.0206243984 0.844563477065
1547 1 11.4090321092 27.8452221488 3.04669358808
1552 1 11.4055423047 26.0685627128 0.80840294082
1509 1 12.7885738599 28.0605517905 1.0319515671
1510 1 12.774034587 25.8405350471 2.86620456165
1875 1 14.1804216714 27.8390798424 3.03718459403
1880 2 14.1516430417 25.9683801024 0.910877557472
2166 1 18.3179152741 25.8176918746 2.79462244339
1837 1 15.5474555975 28.055071844 1.02479244327
1838 1 15.5783460951 25.8282344348 2.83937100948
2165 1 18.3520110648 28.0806561061 1.0157568573
2203 1 16.9392693133 27.8111352142 2.97288466499
2208 1 16.9105279232 26.037887436 0.791763895798
2531 1 20.9258549763 25.7332690078 2.76734842994
2589 2 19.6253073194 27.8552499291 3.04751179104
2536 2 19.4876080525 25.8307964528 0.603441379106
2487 1 21.7694911849 28.4061318379 2.31199030782
2551 1 22.8624698121 25.776997442 1.42964823686
2859 1 23.3711849493 27.0323027392 3.32950349611
2851 1 23.7238767856 28.3224301926 0.853781751946
3186 1 26.1686632883 28.6622370627 1.10010801348
3251 1 25.1308675118 26.5574172539 1.77205237237
2488 1 24.591711805 28.9875441551 2.96020514323
3143 1 27.344517703 28.980981466 3.14730127919
3149 1 27.4359464296 26.6062489504 1.35786614604
3471 1 30.1137297966 28.9154817729 3.06599734045
3477 1 30.1266487408 26.7036830125 1.31777697599
3514 1 28.7002184874 28.6614733643 1.15796953112
3515 1 28.6339568674 26.9132322878 3.40306309643
3799 1 32.937712044 28.9410905932 3.03829705899
3805 1 32.8969373285 26.7629658692 1.28517380112
3842 1 31.5260732223 28.7356026401 1.06143310974
3843 1 31.5196606266 26.9398283029 3.30283780935
4170 1 34.3111418451 28.7579814424 1.02421907822
4171 1 34.339689365 26.9379352401 3.28906144752
4127 1 35.7310013957 28.9709052214 3.0538628596
4133 1 35.7285384276 26.7661392811 1.27837652816
4498 1 37.0859712845 28.7633283374 1.01277937985
4499 1 37.0893903743 26.9379445271 3.31331067693
4455 1 38.4317611912 28.9469369191 3.04460899552
4461 1 38.4822027905 26.7466342899 1.31123660533
4789 1 41.2336165902 26.863611472 1.33477214935
4826 1 39.8365959008 28.8195025067 1.0640514329
4827 1 39.9409691839 27.0616309923 3.35026798023
4783 1 41.3882279474 29.1859429219 2.99444143762
241 1 45.5474840558 27.2691929559 3.18007215866
240 1 43.8944805202 26.833370163 1.32807877729
5154 1 42.6339660919 28.9115087771 1.08427813243
5155 1 42.618570742 27.1343598205 3.38154902702
289 2 45.1663699243 28.6424409841 1.21874005088
191 1 1.35796585371 29.4569292743 3.0459048242
227 2 1.80855608656 30.9794903845 1.46839967796
234 1 0.185922357651 31.6976359989 3.03782951781
555 1 3.05826738979 31.7193118319 3.28148467346
190 1 0.55319372291 32.1932250129 0.120042007714
518 2 4.5259777938 32.5282852045 1.4037461559
519 1 4.30397504026 29.5670570525 3.29097632632
846 1 7.15623091555 32.0596445179 1.44903570476
847 1 7.21642306895 29.7868890765 3.32867249189
890 2 5.87868286696 29.7466527269 1.45678468298
883 1 5.77735309075 31.7507709845 3.40076261137
1174 1 9.9880210211 32.0823150689 1.48278001005
1175 1 10.0076803168 29.8452844272 3.2846140574
1218 1 8.57987899863 30.0524541169 1.30412407373
1211 1 8.58895794937 31.8349561402 3.46323523154
1546 1 11.3825295008 30.0633189502 1.26595742605
1539 1 11.4062693014 31.8701898711 3.4884725902
1502 1 12.7722441627 32.0940182493 1.46297225884
1503 1 12.7999715468 29.8539109364 3.26425181137
1874 1 14.1690619562 30.0781622797 1.24596483809
1867 1 14.1675517641 31.8877861517 3.46648959956
1830 1 15.5668231707 32.0989587283 1.45948612446
1831 1 15.5374173601 29.853679265 3.2459176691
2158 1 18.4017725897 32.0588526284 1.4520081911
2202 1 16.9509893933 30.0689029658 1.290936287
2159 1 18.2045259098 29.868561415 3.30467317534
2195 1 16.9419404136 31.8977759115 3.46671450956
2530 1 19.9460101557 30.113940403 1.71691414748
2486 2 21.0407478337 32.1206506924 1.45728728276
2858 1 21.8740157992 29.9365948554 0.276474842564
2523 1 19.6538236821 31.8917104955 3.53711926794
2850 1 22.7930644567 32.3150312358 0.0776793748446
2815 1 25.9206702531 30.9042520515 2.62214897102
2806 1 23.0172159117 30.5972010975 2.16772497624
3178 1 25.742256243 32.6414566473 0.386977247182
2836 1 24.3610928332 32.7364860816 2.43997914884
3179 1 24.6579072232 30.5435180279 0.484884496219
3142 1 27.3556204734 30.7326426411 0.572203917728
3470 1 30.0792203084 30.6828419747 0.720276950164
3506 1 28.6661777906 32.7690521646 0.485620216143
3507 1 28.7082171733 30.91753122 2.7158813747
3134 1 27.256550788 32.8672754353 2.42538272009
3798 1 32.8869274412 30.7427618624 0.748416830869
3834 1 31.4201303973 32.703296728 0.449250571375
3835 1 31.4993217289 30.9206665261 2.74930773121
4162 1 34.2659101303 32.751950247 0.507559075257
4163 1 34.3075179516 30.9620782311 2.77522113467
4126 1 35.698850254 30.7697580714 0.760478041597
4490 1 37.0945243135 32.7804695859 0.527611466138
4491 1 37.0908513059 30.9936640193 2.76901062091
4454 1 38.4641704246 30.7974024756 0.746970457371
4782 1 41.2497930345 30.8332878655 0.845189181327
4818 2 39.8445871221 32.8672421333 0.381299896925
4819 2 39.7259173415 30.8575118993 2.79904832993
235 1 44.2222738968 29.3619239552 3.06936186673
5111 1 44.1579761025 30.7220044572 0.5671492516
5147 1 43.1066984735 31.5156216683 2.7869036127
5146 1 42.4861698434 32.7699197171 0.482922177871
5110 2 44.5029979474 32.7591238247 1.39204215681
181 1 1.48160002154 36.3902895043 1.97211052409
554 1 2.94840185152 34.3480977245 1.71816699257
5102 1 0.168860558656 34.4191247436 1.99937647446
226 2 1.78970917681 33.7489288693 3.57647997273
509 1 4.51023386349 36.1731088672 1.88417319067
837 1 7.28949201698 36.1928292442 1.92501875342
882 1 5.95150697988 34.2207877184 1.69866847848
510 1 4.47933730291 33.811896199 3.60970120745
1165 1 10.0256254291 36.137245375 1.91084432661
1210 1 8.60711170684 34.101346173 1.70371512737
1538 1 11.3962938517 34.1191562397 1.69798970007
1493 1 12.7810788039 36.1396716044 1.92860557197
1866 1 14.161831694 34.1218137432 1.68990061115
1821 1 15.5521544613 36.1246433788 1.9208527008
2149 1 18.324378707 36.1491908054 1.91873149153
2194 1 16.9721954518 34.1036438574 1.68287253766
2477 1 21.2772108257 36.1247212689 2.1268622789
2522 1 19.7007225695 34.1340103144 1.72557628248
2706 1 22.7229758851 36.3866436185 0.175807659415
2378 1 19.8547696073 36.3039827555 0.0465361940419
2842 2 23.3492093939 34.8682639383 2.38128218736
3170 1 25.832315979 34.7742733868 2.22983246217
2805 1 24.1760418243 34.4742567665 0.166067410193
3462 1 30.0924498329 32.9099182953 2.49695612155
3133 1 27.1225935212 34.6583136921 0.174022310297
3461 1 30.0288163821 34.7151205143 0.208969481587
3498 1 28.6573616487 34.8671485793 2.22069207124
3790 1 32.8672866158 32.9377670346 2.50407463757
3789 1 32.8149150796 34.7293102477 0.242806721303
3826 1 31.456419338 34.9151508878 2.2630162347
4154 1 34.2392955474 34.9616308399 2.27670188033
4118 1 35.6854190874 32.9782158826 2.52656543222
4117 1 35.6485840559 34.7580679517 0.281879155463
4482 1 37.0794498615 34.9642283983 2.2898010384
4446 1 38.5146818983 32.9873927257 2.55702648918
4774 1 41.1057447436 32.9496828092 2.62270168208
4810 1 39.8601977015 34.9626011999 2.23380720203
4445 1 38.4497372862 34.7923763016 0.271416974164
4773 1 41.3099021519 34.788098011 0.264557646222
5138 1 42.7876733449 34.6077915433 2.19177641091
5101 1 44.2412082074 34.6405921412 0.104991664907
82 1 45.6694520784 36.5387210849 0.0558999156505
40 1 2.99647983317 3.45147730425 4.22438131872
540 1 3.13706719679 0.908319077771 6.03153726013
174 2 0.569219296711 0.879743354272 6.01406387479
402 1 1.79220660303 2.76320306782 6.11285070307
406 1 1.79647132708 1.33241465954 3.9653501374
78 1 0.322963200679 3.52989504853 3.81889597238
407 1 4.46533939167 2.94246271343 6.13453087741
368 1 4.46205526663 1.33886448224 4.09363408912
692 1 7.1908288708 3.09838859921 6.39222613812
696 1 7.25740892281 1.32466056997 4.13690100431
735 1 5.85320122227 1.02663892524 6.13561391689
734 1 5.86925586896 3.32513775896 4.29074574353
1020 1 9.99670089844 3.12272419768 6.42078524251
1024 1 10.0224103458 1.35581597228 4.192304307
1063 1 8.61250552 1.09959416937 6.1922288438
1062 1 8.60671892798 3.36713720805 4.38968274302
1390 1 11.4110833433 3.3698496026 4.42139503956
1391 1 11.4139786113 1.12404477207 6.21439540198
1348 1 12.786351283 3.14632267421 6.45307632362
1352 1 12.7851950038 1.35565256677 4.19614805508
1719 1 14.1534190543 1.13838373758 6.22657739868
1718 1 14.1661419503 3.37881057867 4.42919759956
1676 1 15.5374286311 3.16959277517 6.44467022048
1680 1 15.5529429214 1.37717324081 4.21692643828
2008 1 18.2930427978 1.43056216333 4.17285260476
2047 1 16.9539538982 1.19892916968 6.24179006418
2369 1 18.3806122698 3.23936097485 6.46467358654
2046 1 16.9502336516 3.41954076963 4.4444068229
2333 1 21.0847636563 1.41783141853 4.16179718815
2698 1 19.6737085378 1.20991025051 6.14882367586
2697 1 19.725563203 3.4398997247 4.4159507527
2325 1 21.0380613921 3.25094704703 6.43905180823
2374 1 22.528084957 1.49463257648 6.08600760453
2662 1 22.4223590847 3.5588116433 4.45595255424
2701 1 24.4819508702 2.33600041127 4.14249728016
3033 1 25.9514243216 0.467192197589 4.03250978628
3030 1 25.8935274828 2.9655707129 5.95538971946
2704 1 24.7742373289 0.775359346499 6.00478451636
2705 1 23.1467615845 0.206210366181 4.16992430993
2991 1 27.293932188 2.55977207922 3.83420960021
2992 1 27.3671200563 0.880724864477 6.00584697606
3319 1 30.0399700818 2.59685663888 3.81752435281
3320 1 30.0490168038 0.828813719742 6.06743927445
3358 1 28.7128716966 2.88914889997 5.84011877063
3361 1 28.6734267537 0.573210649822 3.99954192746
3647 1 32.8110089546 2.61459102383 3.82976432704
3648 1 32.8624925682 0.825759809193 6.08667117352
3686 1 31.4676930472 2.82305172609 5.87203627769
3689 1 31.4358388762 0.601568259938 4.06134048555
4017 1 34.2324400342 0.619714812961 4.0581720936
4014 1 34.2445818315 2.84348551634 5.85671923107
3975 1 35.6308055858 2.61720608058 3.83960488041
3976 1 35.6537960644 0.839571008225 6.07235482528
4342 1 37.0358985504 2.83458819399 5.83445670106
4345 1 37.069333036 0.633469312811 4.07284725797
4631 1 41.2542458952 2.57173811651 3.871213852
4303 1 38.4739478552 2.62416287223 3.87956304552
4304 1 38.5149307584 0.848879617011 6.08640017313
4632 1 41.3839417593 0.657845128906 5.98015876795
4670 1 39.9372584745 2.80985915796 5.92398828124
4673 1 39.8665184123 0.651073439911 4.05270910111
218 1 45.2960932987 0.607359831836 4.02953520115
79 1 45.1160343039 2.96490998494 5.95282223454
4959 1 43.8502167089 2.60750380771 3.84423111608
4998 1 42.5628515163 2.90308825816 5.86630287636
5001 1 42.7844112298 0.53047728724 3.98410785571
37 1 43.8609645423 0.970768866667 6.25678942084
401 1 0.904418944422 4.9619423705 5.62454889813
30 2 2.98906708755 4.85675851114 6.3715327557
400 1 2.85906256472 7.11474336463 5.12538847305
363 1 4.57336087203 5.32382963759 4.70128696276
691 1 7.16100820517 5.36064281436 4.6374300577
729 1 5.78933532899 5.05387727129 6.70786173672
685 1 7.13952020226 7.14602441014 6.94353038784
357 1 4.31035981776 6.95231732525 7.07397948249
1019 1 9.99683986186 5.37733479597 4.63517666952
1057 1 8.56680079442 5.13589049817 6.64894536278
1013 1 9.98145883471 7.14442967039 6.88821957973
1385 1 11.3853662711 5.14757456229 6.6610920482
1347 1 12.8035408517 5.40285409456 4.65149885479
1713 1 14.1784807722 5.18758230503 6.68938777042
1341 1 12.7731914382 7.17398222651 6.90040904222
1675 1 15.5752619628 5.41047144056 4.67555121498
2041 1 16.9616559332 5.17686485414 6.74322899667
2003 1 18.3789157776 5.40258159781 4.70633666514
1669 1 15.6201512584 7.21231673559 6.97873912166
2361 1 18.3580923037 7.18957975934 7.18463596497
2330 1 20.9759010816 5.55355571289 4.60728908076
1997 1 19.8367513215 5.24886980791 6.79481916386