ITEM: TIMESTEP
28000
ITEM: NUMBER OF ATOMS
5248
ITEM: BOX BOUNDS pp pp pp
0.0 45.68
0.0 36.5618393957
0.0 36.5618393957
ITEM: ATOMS id type x y z
409 2 3.26060613529 1.25820765886 1.93457897352
39 1 1.74341725157 3.2920713268 2.1402861707
181 1 0.896763322291 0.68631320705 2.0024663342
408 1 2.95744060445 3.61858635144 0.192399123368
697 1 7.18889565289 1.58135285994 0.0850375459949
737 1 5.80281063344 1.34980380772 2.08385305439
695 1 7.17951836872 3.39784405384 2.31614579794
367 1 4.39579550737 3.40515399092 2.23786339552
736 1 5.80864191246 3.62057795276 0.287643783159
369 1 4.51482773659 1.59335619679 0.0208836603233
1025 1 10.0199509813 1.5978934844 0.106682216134
1065 1 8.58786195681 1.38833576579 2.10504104203
1023 1 10.0103970732 3.41311206007 2.34511529477
1064 1 8.61129099751 3.603480228 0.328718590334
1393 1 11.4102633188 1.40812548043 2.1160025592
1392 1 11.4138210415 3.63180104319 0.343981786746
1353 1 12.7946011757 1.62139285071 0.109483023192
1721 1 14.2186715482 1.43887435868 2.10497772922
1351 1 12.8206782436 3.42729121215 2.36302984989
1720 1 14.2039423543 3.61721591744 0.353475895689
1681 1 15.6140308668 1.62772891632 0.12101523904
2049 1 17.0805127953 1.47245246723 2.09954431304
1679 1 15.682728584 3.46044254318 2.35199468914
2007 1 18.4691638702 3.51182068544 2.35367721014
2009 1 18.5488522016 1.6895858115 0.215501757307
2048 1 17.0475230841 3.61004313516 0.31873599808
2377 1 20.0212388955 1.78390261623 2.44522412226
2337 1 21.3392559409 1.79630945286 0.172449709429
2477 2 21.7919609647 0.478741116293 2.18411786221
2706 1 22.9985557482 0.091813474549 0.1686005269
2336 1 22.910562862 2.45566113157 2.15649088943
3032 1 25.9379001754 2.39249098936 1.97096914603
2665 1 24.4026021883 0.505620245372 2.25683869136
3034 1 25.7821332744 0.266812187948 0.243590278398
3360 1 28.6465842885 2.51415316759 1.94368694918
3321 1 30.0536911913 0.521759059199 2.21133295358
2993 1 27.3126203022 0.471919259783 2.17776158958
3362 1 28.6631587165 0.272351414566 0.196373766052
3649 1 32.8650950634 0.544260980387 2.20767836492
3688 1 31.4281702666 2.53628466447 1.98828322357
3690 1 31.4428519944 0.29907999198 0.19825780136
4016 1 34.254457739 2.56269345211 1.98905972841
4018 1 34.2589450213 0.337513386542 0.193694584627
3977 1 35.6794656838 0.575350256627 2.21345959928
4344 1 37.0626385784 2.60628475003 1.99520103283
4346 1 37.0535019511 0.382232526297 0.189399105839
4305 1 38.4632366977 0.609120999234 2.21767683232
4672 1 39.8206099188 2.657432172 2.00070948366
4633 1 41.1799634472 0.648995304427 2.23065099952
4674 1 39.8263756697 0.423830445124 0.169548958448
81 1 45.1648390913 2.62734408877 1.92795028399
5000 1 42.5390236081 2.69520454235 1.98568156045
4961 1 43.8555336034 0.686380303605 2.12502399479
5002 1 42.440675348 0.414585024076 0.181736277927
36 1 2.87049033523 5.36467452388 2.58827409801
77 1 0.0295579044082 5.03253661722 2.94984007149
35 1 1.55093906962 5.61604971013 0.545741252223
70 1 1.29035211455 7.22369613041 2.80610043927
366 1 4.34843962676 5.58023233953 0.5546842272
694 1 7.21610098788 5.61171814803 0.546164076031
733 1 5.77556391796 5.41481170647 2.53168092664
1022 1 10.0201848706 5.63475261228 0.563665483414
1061 1 8.61396892587 5.41185151851 2.55956333924
1389 1 11.4326277862 5.43432541957 2.5793518575
1350 1 12.8329776699 5.65130444312 0.574154879668
1717 1 14.245461211 5.41459333102 2.59399098002
1678 1 15.595893165 5.59111365658 0.532253731214
2006 1 18.3704678886 5.62680248706 0.337459575298
2045 1 17.113036899 5.51613622838 2.48994904624
2335 1 21.0697198267 4.02549602777 2.72040742997
2376 1 19.9564134581 3.73108629004 0.383038155848
2373 2 19.7735867699 5.67390641078 2.02771451927
2387 1 21.4414520488 5.83293716912 0.388241690225
2759 1 21.4605136503 6.67904875028 3.47748260184
2767 1 22.7489100525 3.86898569864 0.157628507984
2722 2 23.1144704255 6.93433732709 1.91511526975
2663 2 24.6453178651 4.18656848008 1.69920313548
3028 1 25.7826573711 6.47707808931 1.66194984965
3029 1 23.2400741287 4.96244587704 3.48265760008
2986 1 27.2118181046 4.48672300315 1.728342002
3318 1 30.033519647 4.52888669858 1.73421672141
3356 1 28.5875242006 6.5235905222 1.54625655797
3023 1 27.2173337416 6.76592967051 3.56512049201
3314 1 30.013191016 6.78277361299 3.54938424126
3357 2 28.644628064 4.83251868103 3.64395385015
3646 1 32.8237602656 4.5507782898 1.77446823226
3684 1 31.4060771033 6.55187189434 1.54764000297
3642 1 32.7927165475 6.77131325421 3.55623080527
4012 1 34.2063609202 6.57081241838 1.55472433141
3970 1 35.6221453229 6.79348810371 3.55003793824
3974 1 35.6414795375 4.58646539421 1.77954006143
4340 1 36.982973815 6.61044114071 1.52093057011
4298 2 38.3834548011 6.92094185979 3.43295537123
4302 1 38.4138582111 4.64223473895 1.77518527056
4630 1 41.1819789818 4.68928941746 1.78760774737
4668 1 39.7960105964 6.66451195359 1.53833021946
4626 1 41.1777509624 6.91134186517 3.54843628745
4958 2 43.8383810555 4.82279046824 1.8060817562
4996 1 42.4951709443 6.79152025816 1.56709454521
4954 1 44.1363877792 6.95811338925 3.34285141574
80 1 45.5071454519 4.05954547385 0.0878394012641
404 1 2.94246921712 7.57442289908 0.717972373699
38 1 1.47737867436 9.43797248628 0.97812002588
392 1 2.79341458516 9.27132604094 3.01132919116
135 2 0.310523824451 7.5934064062 0.265506673125
362 1 4.26551865008 7.3566130129 2.79394826731
361 1 4.38582474752 9.53125322188 1.02596769691
689 1 7.18732145154 9.62433183584 0.986250553969
690 1 7.20772821309 7.40246926414 2.76463118846
727 1 5.76248951794 9.34513977587 3.0050353995
732 1 5.78791146278 7.57813989944 0.786977182227
1017 1 10.0066402066 9.62740751722 0.977862018067
1018 1 10.0191733024 7.42675164491 2.76891791085
1055 1 8.61019965602 9.41640580056 2.97903776647
1060 1 8.61404814814 7.63471096178 0.768059798373
1388 1 11.4337517659 7.64992588751 0.786227030524
1383 1 11.4357655094 9.43024365825 2.96868074326
1345 1 12.8615922148 9.64262200961 0.979043226829
1346 1 12.8682307747 7.44410442855 2.77953693348
1711 1 14.303022715 9.46295428229 2.97699777268
1716 1 14.2639022989 7.66901811928 0.772193460442
2002 1 18.6340440616 7.48415921798 2.76740620918
1673 1 15.6513187524 9.69945203609 0.954933883768
1674 1 15.6322630654 7.37108339954 2.82538736488
2039 1 16.9617359926 9.24915266711 3.08785767115
2044 1 16.877374851 7.55633172232 0.716634855176
2001 2 18.2539763335 9.2216643417 0.930484845874
2334 1 19.8293079675 7.60138117861 0.374651125583
2367 2 20.600061937 8.75095198094 3.38051548196
2329 2 21.2108412795 9.55724155768 0.279539090303
2372 1 22.8225079344 8.08104546791 0.0591211392829
2323 1 23.0382259518 8.99704778079 3.40626665152
2421 1 23.2116375648 10.5406788073 0.866434657616
2059 1 24.6421685734 8.6446456157 1.52035587811
2657 1 25.9553708024 8.85847389525 3.41970821046
3022 1 25.7744089155 10.6805351883 1.07498968837
2643 1 24.5109302255 10.8849415668 3.19115086129
2979 1 27.2272042849 10.8244444844 3.14081594462
2985 1 27.190827734 8.53984821202 1.33426472181
3307 1 29.9718126111 10.7916686218 3.13505084295
3313 1 29.9674401488 8.53809843187 1.31675960832
3350 1 28.5846651094 10.5447654135 1.09826531421
3351 1 28.5956327236 8.77650892944 3.35667403372
3635 1 32.7763732153 10.7858096139 3.12295873768
3641 1 32.778482988 8.56686442843 1.32760003707
3678 1 31.3626125767 10.5603990224 1.10929008703
3679 1 31.3753779043 8.78171193488 3.33968874813
4007 1 34.1811287237 8.78105110284 3.33671913432
4006 1 34.1604468605 10.5782397806 1.10633636521
3963 1 35.5524576851 10.8076815157 3.10703745767
3969 1 35.5721556413 8.59600892541 1.31817681741
4334 1 36.9580403927 10.6151160817 1.10690037241
4335 1 36.953039648 8.83364964796 3.31754516498
4291 1 38.3431164401 10.8414913808 3.10848733767
4297 1 38.3749364966 8.64132855873 1.32007828588
4619 1 41.1632175132 10.8676445256 3.11721591668
4625 1 41.1509680397 8.73042730805 1.36762181192
4662 1 39.7497642904 10.6792001259 1.11253929758
4663 1 39.7738983186 8.88371105854 3.33031248849
33 1 45.5966195258 9.19751316547 3.16918316709
71 1 44.2097536776 8.80677428215 1.14069896842
4953 1 42.6064688958 10.7407471274 1.20383370954
4991 1 42.691996402 8.92506467096 3.21194385922
398 1 2.93706691429 11.4216588704 1.31429699128
399 1 1.33882606971 11.2615578898 3.1759056454
391 2 3.09263565302 13.0858326096 3.27051770637
453 1 1.4352303954 13.3625304858 1.22544131424
354 1 4.19400625432 13.6855757492 1.17421310903
355 1 4.37491718205 11.2584755637 3.20041188419
682 1 7.17923990004 13.6222357993 1.38778187251
683 1 7.17026850622 11.403721787 3.17324718412
726 1 5.76120013747 11.6275269799 1.17040699548
719 1 5.72015881015 13.3812263697 3.33652239125
1010 1 10.0392642414 13.6346893457 1.37334438973
1011 1 10.0034093823 11.4240840787 3.17714355494
1054 1 8.60751144937 11.6394699842 1.16970673887
1047 1 8.60988213506 13.4220907836 3.36252586087
1375 1 11.4236851708 13.4336042777 3.35937824035
1382 2 11.4245783879 11.5539247347 1.25049062768
1338 1 12.7941776884 13.6806974456 1.34825441304
1339 1 12.8624550187 11.4327140751 3.17422561761
1710 1 14.185255825 11.6910258661 1.13129022762
1703 1 14.1728745518 13.4682547405 3.3386412012
2366 2 18.1737451902 11.0727353508 3.46740432821
1666 1 15.4369689594 13.8241554963 1.2568341479
1667 1 15.7235083539 11.4836239793 3.10341252
1994 1 18.2597880108 13.8748639007 1.31786970758
1995 2 16.6691854293 11.9275698439 0.749361274287
2031 2 16.656600651 13.8633360593 3.14382612842
2688 2 22.375049965 11.5030841658 2.67079817023
2359 2 19.797515072 12.2965432563 1.01643983617
2678 2 22.1499407804 14.6067164929 1.51345379947
2694 1 24.1143587347 12.8792593805 1.1666476467
2642 1 25.9270280714 12.829769195 2.84108677876
3014 1 25.8636144267 14.5239282938 0.76545211955
2978 1 27.2609377239 12.5768561765 0.880003213857
3306 1 29.9852824714 12.576427148 0.875129066373
3343 1 28.6077974753 12.8170285768 2.91811256627
3342 1 28.603217853 14.6242391918 0.626148409953
3634 1 32.7651359542 12.570261285 0.896141309973
3670 1 31.433656102 14.5611160081 0.62715371125
3671 1 31.3965336566 12.7834113157 2.90331877139
3999 1 34.1694322724 12.8101318023 2.89068065004
3998 1 34.1765214732 14.5873499384 0.640540097853
3962 1 35.5591593638 12.5992525631 0.886824543836
4327 1 36.924452496 12.8125656552 2.87186994378
4326 1 36.9086576049 14.6145079881 0.598515074905
4290 1 38.3230086799 12.6457738478 0.867722559079
4618 1 41.1372487415 12.6855694861 0.865436509079
4655 1 39.7299998886 12.8286401767 2.86265340469
4946 1 44.0857286195 11.001485768 3.11524882303
129 1 45.5972232471 11.1900660211 1.14009528645
63 1 45.3564907324 13.0619321276 2.90721974829
4938 1 42.5299641183 12.8667709513 2.84888721862
4990 1 43.961418784 12.7955954129 0.875350132763
390 1 1.66913678689 15.0370472864 3.47460009485
83 2 0.839046234258 16.9984567287 0.490429459788
26 1 2.71076502497 16.0099270611 1.53583076671
345 1 4.49058391914 17.6048490687 1.83989373354
673 1 7.19942997009 17.6156969788 1.83549738575
718 1 5.72682422911 15.5712856725 1.60563146059
674 1 7.17283337648 15.4050929027 3.60177925634
346 1 4.2978792803 15.3620852515 3.57080425716
1001 1 10.0065501296 17.6812815465 1.84951510469
1046 1 8.62793797801 15.6231920736 1.63526802874
1002 1 10.0267800407 15.4408011937 3.6126331446
1374 1 11.3933400528 15.679245296 1.6019693905
1329 1 12.7516851439 17.7511018949 1.83760771191
1702 1 14.0851766809 15.7883255292 1.57646568374
1330 1 12.7937218163 15.4771037504 3.60357316497
1657 1 15.5883006319 17.7580689462 1.87475996575
2030 1 16.967203503 15.8236986049 1.64387556484
1985 1 18.4932340973 17.7359957177 1.89428516805
1658 1 15.4640005866 15.620883258 3.63037776955
2869 1 19.7935352279 15.7144183484 1.70632096014
2313 2 21.0576242251 17.7438576754 1.68174226039
2829 1 22.7940663449 18.2502035428 0.0473796150373
2866 1 23.8985020151 14.7632088618 2.949662393
3006 2 25.4196171863 16.2692134155 2.31414890887
2641 1 24.0158555479 16.0862845584 0.332586987904
2970 1 27.3447593335 14.8714025618 2.65634173087
3298 1 30.0577806319 14.7753991082 2.65478538
3297 1 30.0888016652 16.5510182076 0.387472430837
3334 1 28.8687713893 16.7942168976 2.43508164267
2969 1 27.1452317025 16.6505931958 0.503583128217
3626 1 32.7972485564 14.8150971111 2.66268770175
3625 1 32.8228975065 16.5945638811 0.415282946678
3662 1 31.4363203195 16.8358436808 2.43460188337
3990 1 34.2017056198 16.8421775085 2.43314593258
3954 1 35.569176975 14.8283847583 2.64735057941
3953 1 35.5608736775 16.6189036142 0.400377832461
4318 1 36.9529332704 16.8570857411 2.39654602698
4654 1 39.7179296975 14.651602022 0.591628432064
4282 2 38.3005796221 14.8202296515 2.59236409316
4610 1 41.086181526 14.8321342329 2.56705857912
4646 1 39.683056907 16.8264560016 2.33721409081
4609 1 41.0934589623 16.6778250332 0.32447694828
4281 1 38.3108422307 16.6373096 0.356030409744
4982 1 42.5111020539 14.7084474831 0.545907573935
125 1 45.3279376931 14.7791816866 0.691333356819
27 2 43.7500884262 14.9630085203 2.45217619649
62 1 45.3598249551 16.7115112249 2.38637106554
4974 1 42.4387812887 16.8825473353 2.3296687167
4937 1 43.9321881927 16.7650126009 0.352423290591
17 1 1.13757071185 18.6007130643 2.09280659978
573 1 3.26257689981 19.5957494836 2.08115725516
244 1 1.77993331421 21.4682338729 2.22888464353
572 1 3.18279524661 21.8301209011 0.255966087639
5190 1 0.345181459523 21.6675300546 0.235336879295
861 1 7.17684565899 19.8585166511 0.0370477761515
901 1 5.84409757334 19.6406064132 2.08097380935
859 1 7.23119167553 21.6765905765 2.27410898808
531 1 4.47562779909 21.6556576095 2.31233065823
900 1 5.80768959826 21.843216989 0.252188381134
533 1 4.47908134728 19.8059015704 36.5632444347
1189 1 9.99949194471 19.9258670875 0.079340892866
1229 1 8.59447082714 19.6656801047 2.07404183947
1187 1 9.99381107423 21.7063354753 2.30741455894
1557 1 11.379435581 19.7298226879 2.07537493854
1228 1 8.57767319263 21.8911243181 0.265703616913
1517 1 12.7855978018 19.952737286 0.0756183644695
1885 1 14.2021985267 19.7439137351 2.06226929205
1515 1 12.8068187731 21.7239906059 2.30903559115
2213 1 17.0840113859 19.7286652947 2.04238444226
1845 1 15.6213996925 19.9705384159 0.084364746963
1843 1 15.6298966099 21.7204973677 2.29304718025
2173 1 18.5424405796 20.0623807506 0.0928879265849
2171 1 18.4703626685 21.7269902603 2.21790635514
2828 1 20.1820783604 20.0279058086 2.00833674909
2541 1 21.5404525042 20.3081660339 0.0355384166032
2500 2 23.8769892991 19.1618102608 3.33714560779
2868 1 23.1615259889 20.7145246048 1.85251749841
3196 2 25.9241935766 21.0921570306 2.0388298989
3157 2 27.5921597534 18.6321715898 2.20957992422
3485 1 30.1219237837 18.8912022876 2.23551137264
3524 1 28.6447175618 20.8600502652 2.02709557561
3526 1 28.8042919587 18.5620662728 0.201287746391
3223 1 27.1735437907 20.3656040799 0.0931549909162
3551 1 30.0738365793 20.6211811511 0.0198732776479
3854 1 31.4553228621 18.6110043647 0.202564256712
3813 1 32.838588625 18.8665040349 2.21310875009
3852 1 31.489495555 20.9108787656 1.99504263886
4182 1 34.2074448433 18.6407063714 0.188105433736
4180 1 34.2302866377 20.8840253165 1.97276543309
4510 1 36.9691424696 18.6611330972 0.163013258855
4141 1 35.6031566251 18.8732265801 2.19111607997
4508 1 36.9860413003 20.9236105407 1.94050840494
4797 1 41.020982637 18.8314788259 2.04549101403
4469 1 38.364892176 18.8798593246 2.16451343639
4836 1 39.7779405789 20.9239160866 1.87674211219
4838 1 39.6869067111 18.6666130296 0.0876165377947
245 1 44.9694265258 20.9941396028 2.22495502876
5125 1 43.8417516396 18.8386859975 2.11035729297
5164 1 42.4721329504 20.9103392372 1.81443335239
5166 1 42.5237229299 18.690788766 0.101906665648
246 1 45.3125308322 18.8862580267 0.169365432625
569 1 3.08415030767 23.5998689367 2.66462766959
627 1 1.67265626547 23.6500443692 0.781102070742
5122 1 0.22628363157 23.3742287896 2.77215531004
242 1 0.0829610033548 25.4446820466 0.956679462447
198 1 1.58756281462 25.516638047 2.85733924648
530 1 4.45438258553 23.8297184453 0.567131460148
858 1 7.19783272609 23.8672185739 0.534472480625
897 1 5.83719360167 23.6619509954 2.58510921086
1186 1 9.9826838146 23.9162394665 0.528011738125
1225 1 8.59903525215 23.6954895148 2.55488266338
1556 1 11.395621949 21.9413729821 0.305222728033
1553 1 11.4015186132 23.7089825488 2.53070580537
1884 1 14.210066762 21.9562465943 0.305538826882
1514 1 12.8093050114 23.9431800491 0.546035387123
1881 1 14.2320678998 23.7157036884 2.53609439078
2212 1 17.0465500609 21.9737704588 0.267379430905
1842 1 15.6376556348 23.9605282855 0.549357417052
2170 1 18.411465545 23.9784380577 0.53733868336
2209 1 17.0469926586 23.7251809786 2.56284017262
2540 1 19.9670751638 22.1152017242 0.210168322017
2495 1 19.6789900716 23.7328363892 2.52914584328
2537 1 21.3839570405 24.1968176437 0.193573204903
2494 1 21.5145155071 22.4164052697 2.05602902136
2531 1 21.4845783685 25.1990921635 3.12092553001
2923 1 23.271464534 24.6339995728 1.62424377619
2826 1 24.5043787948 22.7503579279 1.78097315473
3192 1 25.8643468294 24.8535061874 1.61902912599
2859 1 24.4465200928 25.2137445452 3.59708396793
3154 1 27.3215489281 22.8951136206 1.81436489664
3478 1 30.0949057981 25.1308789442 3.55154654204
3482 1 30.0780693612 22.874091156 1.78603428001
3520 1 28.6760781258 24.8928476299 1.58110924709
3150 1 27.2794485859 25.1520068436 3.58530757601
3806 1 32.8799635306 25.096861716 3.51537201112
3810 1 32.9097721265 22.9228343126 1.74357176056
3848 1 31.4800236738 24.8808448609 1.52578075237
4176 2 34.2394949905 25.0940867527 1.47803480074
4134 1 35.644854306 25.0891122298 3.48555741964
4138 1 35.556747781 22.9308020353 1.71921942957
4504 1 36.9955774101 24.9062093992 1.4691108818
4462 1 38.4716510899 25.0966758775 3.41190141154
4466 1 38.3990429625 22.9362990059 1.68011177584
4790 1 41.4054816136 25.0818808101 3.29041407657
4794 1 41.2949338504 22.9937395072 1.62245672498
4832 1 39.8850455025 24.9594334184 1.40191442787
4833 1 39.8771570134 23.1094215431 3.58173862825
5160 1 42.7997055845 25.0317052413 1.25235394041
5161 1 44.2998361184 23.1531683571 1.02415325927
5118 1 44.3694638886 25.3066476379 3.01159055627
5158 1 42.9552560428 23.0475229403 3.38723366259
568 1 3.01755098504 25.7368827778 0.845707247447
563 1 2.94953570806 27.5829903612 2.98541396952
197 1 1.46415763522 27.5447118987 1.02793087201
241 1 0.0469115830265 27.4182480559 3.00590686484
526 1 4.42342798765 25.649536744 2.83577034024
525 1 4.40697747863 27.8140549093 1.0332964181
853 1 7.1750492253 27.8875542825 0.969089706379
854 1 7.20181825252 25.6889430644 2.802162126
891 1 5.79630174835 27.6783075165 3.01231186227
896 1 5.82222605875 25.8541241807 0.806307849078
1181 1 9.99766276685 27.9187993607 0.976677193428
1182 1 10.0131253624 25.7006985916 2.76965191346
1219 1 8.60443984719 27.6968773944 2.98115076705
1224 1 8.58402698918 25.9009994715 0.762492787208
1552 1 11.4030076777 25.9278751842 0.763556407813
1547 1 11.4197155123 27.7120977241 2.9862125475
1509 1 12.8166723001 27.9462896867 0.988994499796
1510 1 12.8227770795 25.7108759404 2.77213852772
1875 1 14.2279663751 27.7266084042 2.99504394828
1880 1 14.2221501703 25.9508218801 0.776152707467
2166 1 18.4640785901 25.749912716 2.82985482477
1837 1 15.637361492 27.9710933144 1.01046065611
1838 1 15.630588031 25.7257611916 2.77662643146
2165 1 18.4592809076 27.9991622032 1.01190865742
2203 1 17.0770134968 27.7309813953 3.00987749709
2208 1 17.0419930403 25.9868368825 0.802752035235
2536 1 19.7103386926 25.9911935387 0.806477849909
2589 1 20.0906048034 27.5568811437 3.00746271534
2814 1 21.1588946623 28.2809168465 0.83189988089
2551 2 21.869488373 26.236981647 1.1485220952
2487 1 22.8765110652 27.266797124 3.21039034866
3186 1 25.7947075671 28.8838218632 1.20325165486
3251 1 24.4468749162 26.8114941464 1.37195150351
3187 1 25.8287381606 27.1522577518 3.4083591415
2851 2 23.3684659885 28.9291196983 1.44109063078
2488 1 24.4230507934 29.1975678762 3.33834397562
3149 1 27.2039580608 26.8804293001 1.36449938481
3471 1 30.0456142831 29.1237252367 3.10118685082
3477 1 30.037089464 26.8929670427 1.316590783
3514 1 28.5785060757 28.8900665767 1.12229589819
3515 1 28.648876551 27.1446471854 3.34228574435
3143 1 27.1927397938 29.1488401555 3.1717424769
3799 1 32.8796717233 29.1086250966 3.06219759856
3805 1 32.8181930916 26.9265561912 1.27801455096
3842 1 31.4205365522 28.9023209189 1.07621682507
3843 1 31.4752482807 27.1147162486 3.3046440591
4170 1 34.2536864855 28.9133575296 1.04984219219
4171 1 34.2742052956 27.099989004 3.2696791439
4127 1 35.6921459662 29.1014448968 3.05086690766
4133 1 35.6700193962 26.9368360024 1.25330669072
4498 1 37.0742487489 28.9121201026 1.03200611179
4499 1 37.0814783737 27.0884278337 3.24039080261
4455 1 38.5104417224 29.0884056817 3.01805424508
4461 1 38.4749339627 26.9149595376 1.21724675614
4789 1 41.3921668032 26.9963605396 1.10463964411
4826 1 39.9022022289 28.932128268 1.01333071436
4827 1 39.9663700277 27.0933587264 3.15741580295
4783 1 41.3438725483 29.1261059776 2.98225189917
240 1 44.222376919 27.2217121428 0.983501749567
5154 1 42.7491823215 29.0884223038 1.02315966273
5155 1 42.8442134083 27.1923447283 3.08299661275
191 1 1.49507983957 29.5218513127 3.01305812017
293 1 2.90874264511 29.7020424978 1.05920528001
227 1 1.42313877065 31.5155551704 1.01030575276
555 1 2.89537990298 31.7130270409 3.17347238091
289 1 0.0296077924793 29.3783251852 1.01492487074
518 1 4.35914218144 31.7343783228 1.27164031896
519 2 4.33629405531 29.6688028741 3.10307653054
846 1 7.19200128555 31.8914356386 1.38424761799
847 1 7.21029039218 29.6788015762 3.17265662193
890 1 5.7898316586 29.8470355216 1.14652956501
883 1 5.83279309302 31.6497197578 3.33077051558
1174 1 9.99934204804 31.9353658295 1.42166533213
1175 1 10.0105449842 29.7160485397 3.19628011397
1218 1 8.59248188786 29.9079435903 1.18059444299
1211 1 8.59684985613 31.71310284 3.41050954536
1539 1 11.4056513717 31.7415673377 3.42529421822
1546 1 11.4086868584 29.9417610713 1.2036858461
1502 1 12.8110312562 31.9630279124 1.43623910224
1503 1 12.8182465301 29.7322944346 3.20896420116
1874 1 14.2241767384 29.9704012249 1.21840886737
1867 1 14.2161200849 31.7493400902 3.42581040456
1830 1 15.6406103404 31.99074917 1.45279723421
1831 1 15.6405011743 29.7381230046 3.2113423785
2158 1 18.3740598321 31.9953173579 1.45251918093
2202 1 17.0348322847 29.9819691988 1.23827549232
2159 1 18.5108687785 29.6634921977 3.23704247901
2195 1 17.0531742312 31.7408708031 3.46382735883
2530 2 19.7013306767 30.0380271368 1.2701986964
2486 1 21.08935288 31.8592944143 1.55038582564
2523 1 19.7423715151 31.7023919493 3.47857371176
2843 1 21.4617459549 29.5956014194 3.09700229076
2806 2 23.0575993999 31.3436382039 3.20148956381
2815 1 25.799411981 31.1721802349 3.02728137122
3179 1 24.3745912181 30.922720195 0.97484136645
3178 1 25.7644166139 32.8775990434 0.731418889684
3142 1 27.117054591 30.8733243689 0.924106768551
3470 1 29.983521624 30.8791291046 0.860233320673
3507 1 28.6226848348 31.1054911498 2.88751225264
3506 1 28.5627796607 32.8507905638 0.64841568669
3798 1 32.8425352762 30.8939436266 0.839764180569
3835 1 31.4682589644 31.103976442 2.85728893642
3834 1 31.4329370754 32.8686167901 0.631955804562
4163 1 34.2880837313 31.1102533151 2.84026797741
4126 1 35.6738559431 30.9076208977 0.832249169955
4491 1 37.102835135 31.1057783588 2.83949666734
4162 1 34.2683279326 32.896911454 0.629457242445
4454 1 38.4710458244 30.9206059448 0.811464623142
4782 1 41.2372077572 30.9882029199 0.755418272301
4819 1 39.8973717643 31.1078851815 2.79072010917
235 1 44.2228709314 29.3019368778 2.97417765889
234 1 45.6402849793 31.3527050448 2.84743190901
5111 1 44.1248852285 31.1476979516 0.842449437894
5147 2 42.6054466764 31.236454202 2.64473988296
226 1 1.07127876818 33.4227807083 2.5866649917
82 2 0.746290054758 35.2796127731 0.493033723065
554 2 3.14378158966 33.5617408992 1.59401991425
509 1 4.34218485367 35.8138366723 1.83688995271
837 1 7.16094009715 35.9142326348 1.85755413007
882 1 5.77242269403 33.8567054135 1.59871996241
510 1 4.48299025853 33.6104452782 3.61526562308
838 1 7.18381343868 33.7044100785 3.62494825478
1165 1 10.0080149577 35.9570696336 1.87094923852
1210 1 8.59806687506 33.932870427 1.63955459994
1538 1 11.3903196871 33.9593268111 1.67414832111
1493 1 12.8048228908 35.9786114676 1.87447658957
1866 1 14.2229657269 33.9855460714 1.6781000361
1494 1 12.8026484969 33.7632208104 3.6507504126
1821 1 15.6172998607 36.0126574022 1.83865766821
2149 1 18.4201080559 36.0561478204 1.81969153224
2194 1 17.0457400885 34.0187463598 1.66149775087
1822 1 15.6289083879 33.7574602339 3.63505084451
2703 1 21.5372892578 33.3574161455 3.39225453349
2522 2 19.7124181867 33.8932033941 1.73600896173
2850 1 23.1696704437 33.036493145 1.19768167318
2836 1 24.4521968523 33.1844918017 3.01420583949
2798 1 23.0074433529 35.1019763188 2.31230742351
3170 1 25.820609379 35.0890688628 2.43958227677
2842 1 24.385224703 34.8242036812 0.333710894148
3462 1 30.0496462723 33.0765054847 2.64436917609
3134 1 27.216592351 33.1035108217 2.70794423874
3133 1 27.1845681634 34.850226929 0.397405068827
3461 1 30.0233298474 34.8383239181 0.405324285646
3498 1 28.6560688943 35.0526051917 2.42366094515
3790 1 32.8866757041 33.1066627104 2.64209263457
3789 1 32.8583035539 34.878720303 0.414004464595
3826 1 31.4637034416 35.088744845 2.41999737776
4490 1 37.0707101941 32.9221909208 0.624419992995
4154 1 34.2911645399 35.1166440865 2.43225186132
4118 1 35.7029878732 33.1177191595 2.65159259464
4117 1 35.66882782 34.9148577777 0.413875590312
4482 1 37.0861812708 35.1368236196 2.44015750361
4818 1 39.8249503343 32.9563246202 0.595384471168
4774 1 41.2238991038 33.1716345018 2.62882476561
4446 1 38.4892607585 33.125534422 2.64697261028
4810 1 39.84572904 35.1628397209 2.44068863789
4445 1 38.441288039 34.9564705636 0.409793786675
4773 1 41.1662326918 34.970354161 0.379523934651
5146 1 42.598324701 33.0457121907 0.566345715996
247 1 45.1846104799 35.2486341797 2.428831119
190 1 45.3494168468 33.1858851655 0.60588291951
5110 1 43.9593232947 33.1832808249 2.57031961867
5138 1 42.5680680329 35.1814465961 2.37821520862
5101 1 43.961366903 35.1083842545 0.311610734854
78 1 0.641843355505 2.90610538571 4.09482433467
40 2 3.16405728097 3.23855228325 4.23058268541
540 1 3.29306398565 1.05707712836 6.24172804649
174 1 0.785969574107 1.02504194181 6.21274818308
402 1 2.02134255534 3.13362273482 6.19405626431
406 1 2.04801592622 1.03689439238 4.12256023484
407 1 4.49064065171 3.09243426114 6.33552495152
368 1 4.50803991875 1.17670566081 4.11241292148
692 1 7.17250464628 3.03436666992 6.34334092829
696 1 7.17159216413 1.19393105735 4.11235115014
735 1 5.82697152472 1.02115472248 6.15940731977
734 1 5.77769986593 3.23314668747 4.30351631633
1020 1 9.99097321983 3.01482248351 6.34554052984
1024 1 9.99067506855 1.20753771007 4.12183275927
1063 1 8.57286449376 1.00037249648 6.13542952704
1062 1 8.58440154722 3.2149491995 4.33595669195
1391 1 11.4110801621 1.01912357217 6.1237424265
1390 1 11.4161635352 3.22501389443 4.35544351613
1348 1 12.8533496089 3.03951278492 6.34541811631
1352 1 12.8304599657 1.23633043659 4.12072681795
1719 1 14.2549619753 1.03935225014 6.10953163777
1718 1 14.2917085695 3.26228298157 4.35608446259
1676 1 15.7042627831 3.06239813779 6.35881630847
1680 1 15.6473717286 1.24505327314 4.08472628174
2008 1 18.3870747459 1.17467719834 4.08550058563
2047 1 16.9751500685 0.938960280503 6.12205350773
2369 2 18.2433509054 2.80528690144 6.34015554056
2046 1 17.1454823755 3.29800921531 4.33706591451
2333 2 21.7476872414 1.43316094609 5.89603235099
2698 1 19.6357523815 0.897667513505 6.14362698142
2697 1 19.9946553848 2.96123279387 4.68111717574
2662 1 22.3873817506 3.13758204214 4.61601027512
2325 1 21.8977825798 3.35682616521 7.08594144241
2701 1 24.5990338593 2.66714096275 3.94777999039
3033 1 26.0292193155 0.725398631443 4.14017435571
2704 2 24.8184104402 0.950861858647 6.04014102115
3030 1 25.9995573471 2.96479335662 5.92987447839
2991 1 27.3583101073 2.77481627258 3.95901716561
2992 1 27.3093669851 0.876426802746 6.21473730124
3319 1 30.0288298829 2.75601989911 3.98060663666
3320 1 30.110498031 0.929262288615 6.22365114425
3358 2 28.6929283522 2.85816516138 6.08320077213
3361 1 28.6797582383 0.738853922025 4.21645611567
3647 1 32.8467615951 2.77278228812 3.98958175136
3648 1 32.8944270269 0.987149023422 6.22412315611
3686 1 31.4357870389 2.97299258625 5.97677986427
3689 1 31.4661478967 0.764993698248 4.21147692035
4014 1 34.272580115 2.99506027029 5.99349429268
4017 1 34.292011598 0.777691463442 4.22207754982
3975 1 35.6779993715 2.80371047827 3.9978460165
3976 1 35.7040108221 0.988223564642 6.25001594058
4342 1 37.0557684415 2.99547843397 6.01553037444
4345 1 37.093678783 0.798851433045 4.24033290262
4303 1 38.4594104388 2.84246143054 4.02217580977
4631 1 41.2315933639 2.91447437679 4.01857477854
4304 1 38.4844594042 1.01838333942 6.27274458661
4632 1 41.2877636991 1.06472669103 6.28728022637
4670 1 39.8829828105 3.03681660197 6.03370318282
4673 1 39.8646326225 0.83485022317 4.26462852696
218 1 45.2421875902 0.794206295551 4.12860664644
79 1 45.3461298111 3.13202182934 6.14298624101
4959 1 43.958090953 2.94826496987 3.97853976743
4998 1 42.6750607196 3.15648837128 6.03839324761
5001 1 42.5893820797 0.890546372814 4.21600302291
37 1 43.9512466507 1.08975366002 6.2297454579
401 1 1.48564284872 5.0546086976 4.72347224794
30 2 3.12396786436 5.307976244 6.57261177454
400 1 2.79348745785 7.19012658139 4.86170132684
72 1 0.0307241417256 7.0989032112 5.08782696978
73 1 0.527790000641 5.34023577661 7.26040319688
363 1 4.37479610056 5.27316046326 4.52362161341
691 1 7.18022893393 5.23147696079 4.54390690508
729 1 5.78418429635 5.06835349321 6.54619549805
685 1 7.16994716435 7.05556704823 6.76749628957
357 1 4.46364970154 7.12905214007 6.76523678293
728 1 5.77264283688 7.25100327402 4.73116553867
1019 1 10.0042902353 5.20934745037 4.56303593964
1057 1 8.58547235487 5.03171545856 6.55222503722
1013 1 10.0029602796 7.00870122195 6.77397347635
1056 1 8.6069852259 7.21990329678 4.7708918011
1385 1 11.4207572617 5.01054400874 6.56197068968
1384 2 11.4336314993 7.204985577 4.77645174492