ITEM: TIMESTEP
2000
ITEM: NUMBER OF ATOMS
5248
ITEM: BOX BOUNDS pp pp pp
0.0 45.68
0.0 36.5618393957
0.0 36.5618393957
ITEM: ATOMS id type x y z
409 1 3.29396276132 1.53966373999 2.01458897152
39 2 1.7556367135 3.09965588416 2.08465522567
41 1 1.42830784527 1.77772322217 0.0287728110503
408 1 2.96997491189 3.64430705698 0.0926642549981
697 1 7.19555563671 1.88237764305 0.118082356616
737 1 5.81491066081 1.66675430667 2.10291754009
369 1 4.47731286843 1.78336494211 0.000741641375264
1025 1 10.0235212604 1.86225514519 0.108110649996
1065 1 8.62642489199 1.65274407877 2.13363509277
1023 1 10.0225565391 3.64753997028 2.35579637539
1393 1 11.4193417381 1.60150116383 2.15803888092
1353 1 12.7900422375 1.81213250268 0.128492911319
1721 1 14.1922127566 1.56639912353 2.17990708662
1351 1 12.8124492862 3.61657102758 2.37630158918
1681 1 15.5816666721 1.77990026542 0.16777215908
2049 1 17.0063660166 1.55191215446 2.18677525884
2009 1 18.3847925674 1.76793655461 0.155981161615
1679 1 15.5844256779 3.58620326729 2.39518296755
2007 1 18.3443050582 3.59750470789 2.3686700157
2377 1 19.7768428609 1.62426693223 2.11926735694
2336 1 22.6648669774 1.91224257606 2.12893624342
2337 1 21.2629752482 1.78995861736 0.189784902078
3032 1 25.6288095663 2.12256208139 2.0013588097
2731 1 24.1378774308 1.92543642254 0.133359371711
2665 1 24.3510501416 0.187787219798 2.14519913146
3034 1 25.6772295754 0.0275353080672 0.0872059323632
3360 1 28.5641767062 2.08392978263 1.87496802998
3321 1 30.0268917273 0.302853359017 2.13253808763
3362 1 28.5263358896 0.0791237256365 0.129103546924
2993 1 27.0637730658 0.183695291485 2.174936927
3649 1 32.7989261883 0.370761232938 2.12082968061
3688 1 31.3571034664 2.39919143471 1.91064876249
3690 1 31.4027192546 0.124457304392 0.103613852312
4016 1 34.2142981521 2.37430706661 1.9120952134
4018 1 34.1969664658 0.144035028529 0.100067372483
3977 1 35.6068751718 0.350953372415 2.09202760061
4344 1 36.9902356988 2.35163246741 1.84634825321
4346 1 37.0012772593 0.163765100629 0.0687927820112
4305 1 38.4145900394 0.36555660273 2.03644650712
4672 1 39.8440176325 2.32516899872 1.81370630409
4633 1 41.2919541642 0.343144301529 1.99061147336
4674 1 39.869347774 0.143200493189 0.0380013021123
81 1 45.4458667637 2.09407209624 2.02167745897
5000 1 42.7423139387 2.32256983052 1.86979891821
4961 1 44.1464400827 0.180624261138 1.90954742727
5002 1 42.7612166413 0.067183456146 4.3477428208e-05
36 2 3.23224021519 5.78446297385 2.93437574183
77 2 0.0490807942392 5.58615116718 3.54695992347
695 1 7.17583932774 3.67372971687 2.32458614763
367 1 4.36948371808 3.71042454903 2.22986899493
366 1 4.0169706809 6.06060570711 0.563238171436
694 1 7.07891036412 5.9263404739 0.601016269702
733 1 5.7291935243 5.70065653432 2.60017791145
736 1 5.7038139098 3.93145898401 0.313670006922
1022 1 10.0015591672 5.87690733947 0.600067477506
1061 1 8.57932066788 5.64656847649 2.5910410129
1064 1 8.5801338278 3.89341435535 0.344123266255
1392 1 11.413482604 3.84513225702 0.340894433404
1389 1 11.4348722208 5.6589150496 2.60501969592
1350 1 12.7896902545 5.84314942861 0.597275738004
1717 1 14.1999185534 5.64371385628 2.60293343723
1720 1 14.1894533883 3.8198041654 0.362339686822
1678 1 15.6063717172 5.81327577419 0.590756404968
2006 1 18.315833636 5.78085783332 0.612524490378
2045 1 16.9520659511 5.61049349151 2.62707939246
2048 1 16.9617720374 3.78498524755 0.375998587967
2335 1 21.1155286185 3.71737217679 2.33152286465
2376 1 19.7642464376 3.7595953987 0.331093036129
2373 1 19.6714911595 5.63752060285 2.57921792981
2387 2 21.0934317643 5.56912236986 0.573776930076
2767 1 22.6979934848 3.88184327135 0.44094905801
3029 1 22.4612886119 5.84811449362 2.54995508001
2663 1 23.9715614457 3.87534025456 2.56544795089
3028 1 26.6236499526 6.09868981224 0.849346496105
2695 1 24.7204838224 6.71784848463 3.09248567176
2722 2 24.3656335372 5.58791989602 1.15683773962
2986 2 27.2198799421 3.78552905247 1.46855636505
3318 1 29.8366766683 4.3667950332 1.70712623785
3356 2 28.8067311839 6.65792120265 1.60649514933
3023 1 27.2805224074 6.72009094389 3.46469255423
3314 1 30.1457069771 6.6777456884 3.49818222965
3646 1 32.7823415701 4.37498411099 1.68332199244
3684 1 31.3313105373 6.35464075086 1.36921262549
4012 1 34.1999028271 6.36345469093 1.40364722723
3642 2 32.8050338421 6.48145377822 3.34024073154
3970 1 35.5883150686 6.57583912806 3.45397953258
3974 1 35.6114979947 4.36761673537 1.67086812095
4340 1 37.0056438279 6.35414156529 1.45548225993
4298 1 38.4230448673 6.55705438967 3.48804149323
4302 1 38.4039784182 4.32363084119 1.67077464521
4630 1 41.2180666493 4.30874759577 1.70242395776
4668 1 39.7612860504 6.30997633831 1.44465553341
4626 2 41.1001358495 6.45744933194 3.42457851913
4958 1 44.1018524659 4.41384018112 1.94070000293
4996 1 42.5456666807 6.34207409359 1.50491117372
4954 1 43.7658799466 6.66856831153 3.51928917569
80 1 45.5999678131 3.97168312974 0.0661174511737
70 1 1.55121525026 7.51247282645 3.26012342244
38 2 0.578998653678 7.90559739028 1.29906519066
33 1 0.745774255658 9.92106633438 2.48789655287
404 1 2.77835265332 8.64711167211 1.30976407354
392 1 3.02850270762 9.78316148497 3.41228947636
362 1 4.38528246433 7.7647134342 2.94570131462
361 2 4.59612743734 10.0264378984 1.44354055516
689 1 7.20599883893 9.83301146795 1.15254573323
690 1 7.16948435614 7.64585424266 2.86620619502
727 1 5.88154980495 9.67197166651 3.270471784
732 1 5.575082769 7.93686531036 0.790494028985
1017 1 10.0317858793 9.84969356554 1.07128305195
1018 1 9.99062502604 7.61000215749 2.83300206692
1055 1 8.63482220442 9.6369468176 3.11056708111
1060 1 8.5660837228 7.86787845917 0.84696936242
1383 2 11.2659202775 9.52571117484 3.17983098336
1388 1 11.430041211 7.88988549335 0.842084222448
1345 1 12.7877153706 9.90636498244 1.17485211716
1346 1 12.8437158548 7.68727007193 2.81789688777
1711 2 14.3713521479 9.61503372169 3.29411832462
1716 2 14.2038127796 7.77214336243 0.730229380009
2002 1 18.2992946547 7.62882692397 2.90389707581
1673 1 15.5586601389 9.82207502435 1.10411627074
1674 1 15.601809321 7.62719876169 2.83527920554
2039 1 16.9604872668 9.66035422179 3.12817052245
2044 1 16.9842895743 7.83765007762 0.815999262637
2001 1 18.2783006904 9.83342169798 1.16986819361
2759 2 21.0279059419 7.63927803218 2.99446357807
2334 1 19.6292871685 7.73779356992 0.962111058798
2367 1 19.7614834175 9.60068180317 3.09741668475
2372 1 21.1708344339 9.59914618037 1.19451871576
2323 1 22.9870772928 8.76938350934 2.89968355345
2059 1 24.5965448814 8.21133502953 1.10285572746
2715 2 23.2563157993 10.2867584978 0.902105210379
2657 1 25.8516814301 8.75339233435 3.14197398738
3022 1 25.790350166 10.4084245992 0.875186408491
2643 1 24.3642461875 10.7792089849 2.90364542077
2979 1 27.2295551007 10.681935208 2.91598708058
2985 1 27.2518666157 8.46100455062 1.19929371019
3307 1 30.1016340524 10.6105893831 2.9696707096
3313 1 30.132077209 8.48299537907 1.21562180601
3350 1 28.6825575697 10.4523815085 0.939679227327
3351 1 28.6921862073 8.67044500291 3.19436696048
3635 1 32.8789950928 10.6279605566 3.01486309175
3641 1 32.7991181451 8.36154630196 1.18394811743
3678 1 31.5137950128 10.4175159146 0.987075731703
3679 1 31.5317551869 8.63104396903 3.2290158647
4006 1 34.2279234701 10.3603514517 0.987453754959
4007 1 34.1901934864 8.57621496786 3.2272496962
3963 1 35.6028917702 10.5811698825 3.01796245471
3969 1 35.5903045073 8.36383267752 1.22913853455
4334 1 36.994174857 10.379170033 1.00273891014
4335 1 36.9945805702 8.56339466171 3.25706652423
4291 1 38.3751770316 10.5729320917 3.04677407914
4297 1 38.3944604992 8.35291390922 1.25147516696
4619 1 41.1116699473 10.5980926756 3.08698324659
4625 1 41.1053760512 8.30645052162 1.26451246093
4662 1 39.7614891538 10.3644126774 1.03563523184
4663 1 39.7674487958 8.57119396174 3.29134688645
71 1 43.9242119227 8.36691488846 1.46694981848
4953 1 42.336888175 10.309212509 1.02508890318
4991 1 42.346205438 8.55515818172 3.31695418383
129 2 44.8256449077 10.5734022605 0.975566782175
4946 1 43.7005234961 10.5019685978 2.97256064211
398 1 2.94391348843 11.6912313439 1.54584978381
26 1 1.43866812047 14.1985589074 1.99945103589
128 1 0.882647648797 12.2284342632 0.859351358043
354 1 4.41071245539 13.8037774721 1.77284520911
355 1 4.46416296467 11.7215418577 3.48204493685
682 1 7.2697263871 13.8703708442 1.62394682672
683 1 7.31610007032 11.6590908397 3.42785025311
726 1 5.92028113895 11.9032270254 1.47651195104
1010 1 9.98898041214 13.8760369257 1.56348603659
1011 1 10.0565450256 11.6449067508 3.31558950184
1054 1 8.62066086335 11.8329749515 1.34549661701
1047 1 8.66411535566 13.6682741712 3.60393018874
1382 2 11.2078336903 11.9653445026 1.206111685
1338 1 12.7938321376 13.7744189909 1.64113489527
1339 1 12.803853404 11.659971676 3.1995683017
1710 2 14.3314370282 11.8710908993 1.12937364655
1666 1 15.6029716809 13.8716423552 1.55924009605
1667 1 15.5950355181 11.6685029616 3.28973680647
1994 1 18.444392001 13.823807117 1.51971312703
1995 1 16.9858779858 11.8596850082 1.2945744851
2031 1 17.0466552452 13.6319384324 3.53606665901
2366 1 18.4479806856 11.6490968146 3.28389668835
2329 1 19.7599771419 11.7641636645 1.28359223346
2687 1 21.3209647958 13.5936987529 1.31837619278
2688 1 21.5170125456 11.3090632374 2.95173464802
2359 1 20.0675760637 13.5542180407 3.38991426203
2694 1 23.0453431762 13.135951531 2.92204891572
2642 1 25.7925509125 12.7056392956 2.69023289285
3014 2 25.8653440586 14.2639145232 0.411019771576
2382 1 24.234595773 12.4824268438 0.703828797628
2978 1 27.2409363222 12.3841997003 0.729937381096
3306 1 30.1260044849 12.4116431129 0.728528476565
3343 1 28.6934648508 12.609924112 2.71731854235
3342 1 28.7151112619 14.372507542 0.472370701769
2970 1 27.3687889058 14.5902294207 2.43388197291
3298 1 30.0958233825 14.6142148067 2.50662333007
3634 2 32.8875640718 12.3575436651 0.876377382211
3670 1 31.5176318013 14.4122794339 0.514329536035
3671 1 31.4711938155 12.6318911014 2.78826877759
3998 1 34.254083244 14.431031748 0.533955987228
3999 1 34.2759689679 12.6441928459 2.80496401882
3962 1 35.6066401327 12.4070736214 0.763051349937
4326 1 37.0144122611 14.4102066108 0.545722878096
4327 1 36.9943334978 12.6120385075 2.79359383919
4290 1 38.3894634089 12.4016128824 0.777567899792
4618 1 41.1061793873 12.4067918211 0.78777467563
4654 1 39.7816060465 14.4202247788 0.543220626414
4655 1 39.7250833084 12.5919197218 2.83069751828
4282 1 38.3821972788 14.6166950891 2.57717761664
4610 1 41.0190456905 14.6095104844 2.6032854924
63 1 45.1165486272 12.4666594124 2.72546634033
4938 1 42.4020038075 12.6398972857 2.87076718087
4990 1 43.5698766255 12.3750008964 0.77311914152
4982 1 42.4682638332 14.4369005291 0.555017506238
125 2 45.0879920367 13.9301253785 0.603205733334
27 1 43.8603778737 14.622687795 2.61547257668
390 1 3.18966465073 15.9322801612 1.92550556503
574 1 2.92306885402 18.0737068401 0.135386352762
83 2 1.94390846523 15.8277504912 0.0618256241528
17 1 1.57239912551 18.0297777939 2.43644167145
345 1 4.51418190646 17.8900308291 2.01438504656
673 1 7.26260408107 17.8972843221 1.98856860546
718 1 5.8612099103 15.856728865 1.78800737723
1001 1 10.0474127829 17.8700812806 2.03102949343
1046 1 8.6333895395 15.8846241273 1.79826812201
1374 1 11.4327065727 15.8216224074 1.82086855498
1329 1 12.7830417436 17.848649644 2.01829285031
1702 1 14.1622824599 15.8119548638 1.82342812148
1657 1 15.5583992308 17.8427246746 2.01343795734
2030 1 17.0103875728 15.8382471702 1.8275313587
1985 2 18.1930671175 17.9507682635 1.68094599242
2869 1 21.7801564968 15.5311561457 2.70258651783
2358 1 19.5243136221 15.8724975383 1.89734755138
2313 1 20.8050305751 17.8569067233 2.27171892313
2870 1 21.265008749 16.2754877238 0.412204930568
2678 1 23.5391894198 17.0424080115 1.93086099714
2381 1 23.2699103297 14.8772100013 0.590142732466
2866 1 24.6223980017 14.8429032748 2.44663669038
3006 2 26.1518717063 16.6893825486 2.36407658993
3198 1 25.7353227446 18.1559379496 0.177056052446
3297 1 30.1028278024 16.4029042092 0.292091890168
3334 1 28.7531056787 16.6262442547 2.28244538582
2969 1 27.3269551382 16.3497175735 0.310636592703
3626 1 32.8713282965 14.6428143476 2.54318460497
3625 1 32.8782028795 16.4351270207 0.317800501864
3662 1 31.4677440234 16.6423419188 2.32284106321
3990 1 34.2745798542 16.6570582634 2.3335579383
3954 1 35.659548738 14.6705462534 2.54532463585
3953 1 35.6803908524 16.4440887031 0.341738919836
4318 1 37.1000398235 16.6908954812 2.33610306545
4646 1 39.6796599612 16.6903619186 2.34776255615
4609 1 41.0552340879 16.4595708709 0.328763923269
4281 2 38.4118764539 16.3625988677 0.212084044662
62 2 45.5699109141 16.2360196195 2.91594966112
4974 1 42.2285763444 16.6502124509 2.50153807672
4937 2 43.3893210787 16.4975588685 0.637562310045
573 1 3.17029533115 19.8254038478 2.19962324254
205 1 1.52724497195 20.1232542801 0.231531717988
246 2 0.215345802623 18.3761784221 0.696145187261
244 1 1.79967469762 21.7361298172 2.16179584936
245 1 0.099465852191 20.0587716735 2.33350458332
533 1 4.42824795465 20.0533671955 0.172265309577
861 1 7.25594398163 20.085543821 0.218540047993
901 1 5.86644013176 19.9077311096 2.22010523872
859 1 7.22477929992 21.9055444623 2.45303722345
531 1 4.44789068595 21.8770895031 2.43008196567
1189 1 10.0216920469 20.1101821509 0.209010040498
1229 1 8.65815093157 19.9013472664 2.23254959635
1187 1 10.0281260166 21.921854124 2.44391844293
1557 1 11.3860796828 19.8916957523 2.20333065886
1517 1 12.752013068 20.1022827027 0.201651067268
1885 1 14.163244645 19.8678818699 2.19938531268
1515 1 12.757032083 21.8923010304 2.41373763957
2213 1 16.8745594167 19.908976427 2.11340312528
1845 1 15.4331219334 20.0933575977 0.173212197808
1843 1 15.4940533108 21.8997449283 2.37017414325
2171 1 18.287135617 21.8731039619 2.24806189984
2173 1 18.1951502246 20.0862986372 0.0315577007666
2541 1 19.7544663401 19.9805735077 1.84545010017
2868 1 22.618027801 20.0246883105 2.3281327211
2501 1 21.905539743 21.1863877095 0.216111937837
2829 2 22.0397265984 18.6563359954 0.576323091303
2494 1 21.0164746594 21.8730591712 2.34909567089
2500 2 24.1168440852 18.78912506 3.3662738498
3196 1 25.6336961983 20.3914116684 1.99327555369
3526 1 28.6809987842 18.3951474279 0.0483650594747
3157 1 27.4159339026 18.6750281771 2.03249108632
3485 1 30.0795325347 18.6913782414 2.08943383371
3524 1 28.630423235 20.7347785989 1.88351800933
3854 1 31.4816911204 18.4439205601 0.0909042562304
3813 1 32.8358752592 18.6360729263 2.1324880437
3852 1 31.5145659998 20.69894254 1.90638751241
4180 2 34.2582930863 20.4783004155 1.93863535799
4182 1 34.276550769 18.4528381286 0.128006128365
4510 1 37.053627993 18.4695501374 0.108172571103
4141 1 35.7129995048 18.6570728168 2.13468456906
4508 1 36.9664713578 20.7802513378 1.91406612279
4797 1 41.0371017595 18.72143304 2.1452467104
4469 2 38.3900082699 18.9040819168 2.09444445014
4836 1 39.8323774054 20.7713554758 1.89218461191
4838 1 39.8051430502 18.4931318872 0.0916729516602
5125 1 44.0198921861 18.3280482177 2.16411429963
5164 1 42.7584078918 20.5911195271 1.85336745944
5166 1 42.4066823849 18.5152879118 0.19874442058
5191 1 44.2578748522 20.1403523029 0.0169345586152
572 1 3.08802520518 22.053949955 0.300861134809
569 1 2.98904110307 23.8026575885 2.79911417894
627 1 1.69328395047 23.8341734102 0.876521688513
198 1 1.34590046665 25.4836288191 3.15723940797
5122 1 0.0295961678082 23.4585986386 3.17411702059
530 1 4.43969146074 24.0149094307 0.621588946059
858 1 7.17696652754 24.1213525424 0.659887081541
897 1 5.78883562549 23.8729397299 2.6896587599
900 1 5.83577210825 22.0686574673 0.392679325539
1228 2 8.62006814515 22.1315218721 0.436672192266
1186 1 10.0013378957 24.1688766587 0.629765267377
1225 1 8.60867240673 23.9130706616 2.65482293513
1556 1 11.3865872477 22.1538405145 0.425628308696
1553 1 11.4173864393 23.9286415285 2.63061694999
1514 1 12.8009953974 24.1796192314 0.638193643251
1881 2 14.1381656088 23.8271166963 2.72808348824
1884 1 14.1034111153 22.1295991862 0.391384281437
1842 1 15.4523499605 24.1666078026 0.64447636705
2170 1 18.2097165755 23.9875472358 0.592494182479
2209 1 16.8775804851 23.8865656741 2.61696749171
2212 1 16.7956208107 22.0949710839 0.381885246466
2495 2 19.5476614791 23.7583482512 2.80696434129
2537 1 20.787234903 23.8307081984 0.636977866187
2923 1 22.3719475658 23.7967217946 2.36514596608
2826 1 24.0140332425 22.2127776241 1.68545875217
3192 1 24.9280729744 24.4872139469 2.60895194834
3154 1 26.9997811543 22.744499135 1.63238927245
3478 1 30.0732020653 24.8908357369 3.47520142686
3482 1 30.0996521239 22.6685397612 1.71851742289
3520 1 28.6880693705 24.6297403556 1.50558771928
3150 1 27.2637697015 24.8435366009 3.43996785699
3806 1 32.8790102654 24.9078356129 3.48192089954
3810 1 32.9884247262 22.6793598881 1.69412991951
3848 1 31.5251438584 24.65180637 1.48258319598
4176 2 34.2805676612 24.8960829509 1.46432073222
4134 1 35.6559950149 24.8619168085 3.48908580236
4138 1 35.5288302101 22.716096184 1.74984651421
4504 1 37.0209862078 24.6937870516 1.50366222822
4462 1 38.4998776788 24.9701350438 3.49162008335
4466 1 38.4266474767 22.7407808212 1.690146445
4790 1 41.2459743118 24.990782012 3.54682333328
4794 1 41.3063948941 22.6971063264 1.75393933311
4832 1 39.89157855 24.7239074855 1.50007535099
5190 1 45.6461003606 22.0716595872 0.553700796483
242 1 45.2978928588 24.9318667471 1.28775557421
5160 1 42.5556131412 24.7994187427 1.50395683402
5161 2 43.8525868594 22.9562625108 1.87729581972
5118 1 44.0371192232 25.1627277238 3.42192113983
568 1 3.13025642561 25.9607656588 0.907487928699
563 1 2.72116976333 27.556105685 3.31502787804
197 1 1.21616187199 27.2775563638 1.37668141563
526 1 4.32631255534 25.8000922078 2.98010814098
525 1 4.16420086901 28.10111022 1.48032883344
853 1 7.01973429888 28.1516430003 1.06036565734
854 1 7.16120235701 25.8754677943 2.8801737816
891 1 5.75676873459 27.8113051688 3.17436706681
896 1 5.70024444847 26.1191623336 0.89803388505
1181 1 9.94832987449 28.1299068194 1.06883926428
1182 1 9.99036575824 25.9199723188 2.84734368812
1219 1 8.53676875084 27.9040614243 3.07382620381
1224 1 8.52782910817 26.1443302015 0.848164604596
1547 1 11.3878944287 27.917879561 3.07536841279
1552 1 11.4096205369 26.148506 0.835713788576
1509 1 12.765178625 28.1808503163 1.06110797489
1510 1 12.7993670732 25.924904581 2.85490553296
1875 1 14.2048252284 27.9327622392 3.05618458157
1880 2 14.159594062 26.347490611 0.865545424723
2166 1 18.3052595423 25.8649778314 2.79056244097
1837 1 15.6299034508 28.1677444012 1.04859567315
1838 1 15.5625099795 25.9205263026 2.83175976305
2165 1 18.4284710317 28.0726257971 1.0201373089
2203 1 17.0283833445 27.9180793703 3.01016583931
2208 1 16.9060367495 26.0961527442 0.81062011157
2531 1 20.9141603925 25.7736791962 2.63116165583
2589 2 19.6707533961 27.7930278383 3.18618401016
2536 2 19.5052174929 25.8925530866 0.58639968827
2859 2 22.8558534606 27.3304187923 3.19740339882
2551 1 22.9004618747 25.7307266722 1.24663144083
2851 1 23.4594422321 28.2357134751 1.23160387861
3186 1 25.8469816365 28.608396049 1.07941630342
3251 2 25.0840601319 26.3005366378 1.10774927507
3187 1 25.6111705571 27.0067665172 3.2865903515
2488 1 24.1920566561 29.1518724944 3.39757945345
3143 1 27.1730513074 28.8746964158 3.06208908425
3149 1 27.3377378997 26.6253159335 1.30249690305
3471 1 30.0521560689 28.8682912935 3.05728880318
3477 1 30.0597498698 26.6430420769 1.2779611129
3514 1 28.6414918004 28.613976857 1.12802189314
3515 1 28.5697395606 26.8881670496 3.32905840532
3799 1 32.8824665451 28.8955288811 3.03780973854
3805 1 32.8663254279 26.713954391 1.26554014019
3842 1 31.4792161065 28.6767695674 1.0645749446
3843 1 31.4687996078 26.8890155302 3.26465437148
4170 1 34.2761181412 28.7161596798 1.02070437183
4171 1 34.3015739326 26.8949373255 3.26749593967
4127 1 35.6871206673 28.9269296889 3.03983677829
4133 1 35.7139087045 26.7430412614 1.26267740935
4498 1 37.0904806528 28.7474945275 1.02330620281
4499 1 37.0747494954 26.9110382001 3.30024020841
4455 1 38.4375666624 28.9418164205 3.03926681172
4461 1 38.4749558069 26.7249462355 1.2920662967
4789 1 41.2249247645 26.8056321528 1.30865590796
4826 1 39.8408030523 28.7944314202 1.04817617586
4827 1 39.8946257503 27.0136965678 3.34656873574
4783 1 41.2827277216 29.0545571992 3.02579200129
241 1 45.4380645358 27.2115273345 3.29414188701
240 1 43.8270462094 26.8178614319 1.38039450789
5154 1 42.5655073369 28.8547085449 1.0682520921
5155 1 42.5683548223 27.0919288842 3.42067012615
289 2 45.0922767158 28.6113502947 1.20532519865
191 1 1.31442246493 29.4517997349 3.18372118053
227 2 1.73914405912 30.9800978262 1.38947663799
234 1 0.164948712107 31.6360790965 3.03837145386
555 1 2.9864398057 31.7353551865 3.39473525645
190 1 0.165238325846 32.3107356536 0.371925677708
518 2 4.54943061313 32.4496055266 1.61089778111
519 1 4.24155091974 29.6232318797 3.42568892357
846 1 7.16262107738 32.1226185198 1.54803291133
847 1 7.09912767814 29.8816213276 3.30214687461
890 1 5.60984096318 30.159403985 1.32364517922
883 1 5.73193452652 31.84055511 3.56445818707
1174 1 9.96182872662 32.1284174208 1.53239261278
1175 1 9.96628926616 29.905671958 3.3059923297
1218 1 8.51970368503 30.1131498328 1.3100726634
1211 1 8.56549987851 31.8928893756 3.54797634568
1546 1 11.3645287791 30.1416535469 1.29837960518
1539 1 11.3775135661 31.8978849585 3.5288801389
1502 1 12.7815537811 32.1396557438 1.52011915665
1503 1 12.80279651 29.9242262954 3.29371890885
1874 1 14.2065363623 30.1594363058 1.28877382308
1867 1 14.2230286341 31.90894113 3.5021978856
1830 1 15.6491965084 32.1249460313 1.53015249997
1831 1 15.6297338072 29.9251545067 3.26368225255
2158 1 18.5292262559 32.0859837081 1.52619509359
2202 1 17.0598505246 30.1096101491 1.30931297794
2159 1 18.5509287081 29.9170288308 3.24999488907
2195 1 17.1021665258 31.8818020298 3.51923828907
2487 1 21.450674154 29.3476864989 2.68206336409
2530 2 19.7922820279 30.1796760475 1.08125172877
2486 1 21.3282991057 31.8161111457 1.78608336704
2858 1 22.0843300465 29.9219474121 0.121618125755
2815 1 25.888471263 30.8448963141 2.51127791778
2806 1 23.6047693638 30.7080538368 1.72177418134
3178 1 25.6463827741 32.4701978759 0.625649282066
2836 1 23.8291098047 32.817666692 2.58968679659
3142 1 27.3335620446 30.6118385193 0.54147019966
3470 1 30.0497483883 30.6368857536 0.766895766908
3506 1 28.646922611 32.7004814928 0.496132460965
3507 1 28.6233069948 30.8314069006 2.74835736965
3134 1 27.354292113 32.8281260678 2.37080581998
3462 1 30.0426459482 32.8713035307 2.52498790809
3798 1 32.847451016 30.6921973061 0.780284400349
3834 1 31.402752694 32.6662357719 0.504697590001
3835 1 31.4423734638 30.880557183 2.7867284277
4162 1 34.2382366741 32.7016922302 0.546000001523
3790 1 32.8253209161 32.8973753606 2.54655414978
4163 1 34.26186279 30.9168199701 2.79564401324
4126 1 35.6718128481 30.7258067854 0.785508802843
4490 1 37.063167595 32.7321802299 0.550118464979
4491 1 37.0759465291 30.9512334294 2.79558965338
4454 1 38.4739924394 30.7756665835 0.803667607463
4782 1 41.2220809999 30.8392013098 0.816063407873
4818 2 39.8361034452 32.8419112615 0.410189309551
4819 2 39.8539609305 30.9433183188 2.90554733179
235 1 44.2007254954 29.2855077834 3.11921351425
5111 1 44.1052494865 30.7622695831 0.74047185952
5147 1 42.6783127538 31.089868205 2.79802641039
5146 1 42.7303241665 32.7336210019 0.486684039272
181 1 1.45937804109 36.5546486772 1.88872833195
554 1 2.91989316288 34.3123088093 1.78488778708
5102 1 0.188812753188 34.467936711 2.04576353046
509 1 4.49105844854 36.1503955321 1.8795341663
837 1 7.24557463965 36.2106344079 1.951062903
882 1 5.89670873957 34.2170200272 1.78555164742
1165 1 10.0171798441 36.1636679541 1.96362342161
1210 1 8.59119657576 34.1468593408 1.76270820619
1538 1 11.3696700585 34.1430888291 1.72755843372
1493 1 12.7955069476 36.1285141477 1.97060001196
1866 1 14.2196604093 34.1287686438 1.73089271819
1494 2 12.7987716698 33.8399319042 3.64148416231
1821 1 15.6125663995 36.1084976833 1.99316262966
2149 1 18.4679386678 36.0982713354 1.9806286554
2194 1 17.0708884356 34.1012328248 1.74527292903
2477 1 21.303940498 36.2720448229 2.00980455722
2522 1 19.8706271613 34.0302434277 1.74509923303
2478 1 21.4746740952 33.9555136907 3.61562795898
2706 1 22.7975106854 36.4055757612 0.0916349093743
2378 1 19.8556604353 36.3615992397 0.00508991369202
2842 2 23.1928726558 34.9052840719 2.28126021913
3170 1 25.7205619006 34.7161933677 2.31600806136
2805 1 24.3563413786 34.4783665778 0.218118782853
3133 1 27.1023231494 34.6056325615 0.28136879815
3461 1 29.9995249092 34.6794847378 0.270700420038
3498 1 28.6289607562 34.8868149454 2.2648020677
3789 1 32.8084767479 34.68515946 0.310061634123
3826 1 31.4210543467 34.8894556573 2.31999083039
4154 1 34.2120561636 34.9145598501 2.32235944015
4118 1 35.6534561971 32.9266793285 2.55535502373
4117 1 35.6270845192 34.7114491453 0.314976391642
4482 1 37.0554611341 34.9140385917 2.31027140347
4446 1 38.4750656964 32.9344121859 2.54907096959
4774 1 41.2489066821 32.9799469719 2.53173526064
4810 1 39.8222690797 34.9131298666 2.1712628153
4445 1 38.405116968 34.7526008165 0.263543526642
4773 1 41.3144446646 34.7121466113 0.181663187771
5110 1 44.0432174981 32.9391025873 2.46837039834
5138 1 42.6635811322 34.8696918225 2.09625390269
5101 1 44.2736497429 34.5339188265 0.135336964963
82 1 45.6422644477 36.50426469 0.0188685780967
40 1 3.15364699769 3.4296899314 4.17891907054
540 1 3.12574529209 1.10959825652 6.09636041613
174 1 0.459727389527 1.07153444443 6.03426290306
402 1 1.82012943295 3.03151955378 6.04725175531
406 1 1.86577848197 1.37964155487 3.969135369
78 1 0.379480720449 3.35850366045 4.06582760673
407 1 4.51667573161 3.16026294196 6.30260527849
368 1 4.50294397767 1.37107234568 4.11985298767
692 1 7.22586716586 3.1808590843 6.35472485509
696 1 7.21953678426 1.38190670132 4.1316297612
735 1 5.84703974644 1.12628202092 6.15551617123
734 1 5.82902109026 3.4196421704 4.31394465128
1020 1 10.0018827689 3.18374451071 6.38293902597
1024 1 10.0293973588 1.37752791168 4.16086435004
1063 1 8.61965070605 1.15611651135 6.15957351268
1062 1 8.60875026261 3.40873170808 4.34890152275
1391 1 11.3943621226 1.18408055154 6.18863777785
1390 1 11.4187595379 3.3975503789 4.38319213443
1348 1 12.8165292008 3.17519452551 6.39980210337
1352 1 12.810891924 1.35708638851 4.18928023573
1719 1 14.2343166876 1.17605103137 6.20076873591
1718 1 14.211301884 3.37283005735 4.40159052901
1676 1 15.6300188151 3.16777087546 6.41634617564
1680 1 15.6178095962 1.33301115117 4.20136794743
2008 1 18.4485543893 1.34151126701 4.19405980306
2047 1 17.0759799836 1.15040872272 6.22697368038
2369 1 18.4729564969 3.18470718686 6.45386677965
2046 1 17.0092763708 3.36305736293 4.42033233596
2333 1 21.0689453575 1.43368664441 4.05862283546
2698 1 19.8526191645 1.17058767306 6.22211817291
2697 1 19.6939774232 3.43610967836 4.36586004929
2325 1 21.0811976032 3.25182613969 6.45424503528
2374 2 22.275472147 1.36667314469 5.92937028532
2662 1 22.2388068408 3.4721158359 4.36406661627
2701 1 24.0417668912 2.01234010607 4.17782274965
3033 1 25.6686325133 0.34092117292 4.25139404713
3030 2 25.3216451527 2.19562229269 6.15549111309
2704 1 24.1134512484 0.122569634431 6.37443223339
2991 1 27.0024693696 2.6500910855 4.00668826565
2992 1 27.1503197239 0.816354633737 6.1433729019
3319 1 29.9792740021 2.59331258561 3.88956308457
3320 1 29.9825711308 0.796163023987 6.11236145175
3358 1 28.6868019869 2.86694239422 5.90111672592
3361 1 28.5237753827 0.67001231866 4.10899648905
3647 1 32.8142181469 2.58624822743 3.90811856395
3648 1 32.8531056175 0.782534394791 6.13495325715
3686 1 31.4536724802 2.77590233347 5.92405552785
3689 1 31.4053993258 0.594162563784 4.13378437137
4017 1 34.2384586044 0.583920788435 4.1262132473
4014 1 34.26458702 2.79327173085 5.91851873569
3975 1 35.6661578716 2.57887409772 3.92764667693
3976 1 35.7045418751 0.803092704499 6.13385297399
4342 1 37.1629192957 2.75647622823 5.94987969941
4345 1 37.0222138488 0.537491489051 4.07375766762
4631 1 41.2928526153 2.48930207285 3.79466149619
4303 1 38.3817816399 2.52957172506 3.80593260763
4304 1 38.4935512435 0.61333781358 5.99515473782
4632 1 41.3072147471 0.549760345854 5.9454867766
4670 2 39.8498125286 2.5825866482 5.5193986869
4673 1 39.8511450001 0.549747545477 3.9847458457
218 1 45.4619763461 0.369744449326 3.85131809159
79 2 44.9887466859 3.01434569138 6.15196715156
4959 1 43.891835805 2.45130048144 3.99148362549
4998 1 42.3897888322 2.86179687251 5.96583616349
5001 1 42.7432193304 0.464164711834 3.96064809584
37 1 43.6796612501 0.995029095219 6.16912860115
401 1 1.90090083279 5.4711400064 5.02929424328
393 1 1.38966088068 7.15079069122 7.08617757273
30 2 1.79158091372 4.87337242609 7.23936274246
363 1 4.46711551848 5.46171017771 4.78011202979
691 1 7.17938966126 5.42428686079 4.60862702133
729 1 5.82703907955 5.23915978483 6.66394846318
685 1 7.20417127538 7.2048016842 6.95952337168
1019 1 10.0102917025 5.41774303768 4.60422227724
1057 1 8.597901298 5.19858482355 6.62376305481
1013 1 10.0301578165 7.19166543099 6.86922810674
1385 1 11.4207066212 5.18840226013 6.61679158191
1347 1 12.82756551 5.41883254827 4.60905594964
1713 1 14.2213022545 5.19225171939 6.63285651815
1341 1 12.8275451812 7.20227413524 6.85465413554
1675 1 15.5950900293 5.40174757811 4.62991539388
2041 1 17.0182836128 5.19536731998 6.64969752416
2003 1 18.3657319873 5.41609507022 4.64472191678
1669 1 15.6263548761 7.22619533658 6.89253115362
2361 1 18.4122872754 7.23333452549 6.89878528648
2330 1 21.0241438503 5.48162212854 4.52113717328
1997 1 19.8012800302 5.25262681792 6.67188394481
2327 2 22.372985326 5.26285831671 6.33404073692
2368 1 21.3085990547 7.18347865907 6.91060366745
2331 1 22.739030749 7.22148616519 4.8330353146
2702 2 25.8249610566 4.91345494406 4.16608404795
2659 1 23.7426038616 5.13442555142 4.66857661175
2700 1 25.7396172191 6.89622699039 5.38430682267
2696 1 24.1441572136 6.82621197715 7.16685893646
3357 2 28.9105445824 4.69003672542 4.00617233501
2987 1 27.3733186996 4.9376419724 5.76611591737
3315 1 30.1699922271 4.87951486528 5.81206892559