ITEM: TIMESTEP
36000
ITEM: NUMBER OF ATOMS
5248
ITEM: BOX BOUNDS pp pp pp
0.0 45.68
0.0 36.5618393957
0.0 36.5618393957
ITEM: ATOMS id type x y z
409 2 3.2771838844 1.30803632194 2.23506725129
41 1 1.50496953597 1.85450640508 0.263696481922
39 1 1.96013777498 3.15576069275 2.29641826711
181 1 1.40976613216 0.104588970287 2.00307738915
697 1 7.16188273664 1.70092941186 0.151159464647
737 1 5.82123431266 1.44244511209 2.1387196386
695 1 7.18937393546 3.4611321651 2.36957353615
367 1 4.43684603386 3.45611855559 2.37059317909
369 1 4.35288589266 1.73744528525 0.126151045327
1065 1 8.57249194731 1.46510655326 2.15658383124
1023 1 9.96735282641 3.44880396429 2.3676601273
1393 1 11.3822794706 1.47855615635 2.15608305216
1025 1 9.94900116406 1.69563842079 0.144848640217
1353 1 12.747070743 1.72510902203 0.145182212391
1721 1 14.1855673313 1.47970162769 2.13559341423
1351 1 12.7932007966 3.44951012882 2.36641142787
1681 1 15.6015350481 1.71138520435 0.136937077207
2049 1 17.0442092608 1.42415504802 2.12226657237
1679 1 15.6317425191 3.46386705536 2.39052869308
2007 1 18.3967098255 3.41107053468 2.42183924665
2009 1 18.4275265645 1.68370020912 0.133606882011
2377 1 19.8654466023 1.53733800774 2.12221007545
2337 1 21.4715957411 2.00450942344 0.0526630340669
2477 2 21.7545191722 0.220893862134 1.81910518909
2378 1 19.9979097196 0.00476110894298 0.025361384998
2336 1 22.976642227 2.39897605407 1.97379213321
3032 1 25.8456713513 2.42724245308 1.91478665848
2665 1 24.4137656478 0.464968475764 2.12166962816
3034 1 25.7789456661 0.244582916947 0.162850875413
2706 1 23.0673604858 0.164917814899 0.0776949021833
3360 2 28.4340808493 2.57836841117 1.79402784556
3321 1 30.0003032891 0.588293152588 2.21071182209
2993 1 27.2284048022 0.454663560429 2.11911366243
3362 1 28.5972299412 0.268355547461 0.167499117352
3649 1 32.8116259059 0.529333263739 2.15735056226
3688 2 31.5408847355 2.59567946802 1.80816509344
3690 1 31.3698137637 0.315423693373 0.197113271734
4018 1 34.2125212168 0.302869259015 0.159827459888
4016 1 34.2221996244 2.53164512418 1.93402671749
3977 1 35.6366115162 0.540443513063 2.13779016708
4344 1 37.0399413841 2.54879094055 1.91070627405
4346 1 37.0405322566 0.310701952465 0.124040959552
4305 1 38.4203771865 0.53785215564 2.0954832273
4672 1 39.81122991 2.52502298418 1.88336193427
4633 1 41.2611214202 0.470874408901 2.06833147861
4674 1 39.8605390988 0.300971197353 0.0966073301949
82 1 45.600068518 0.12823598648 0.100366472234
81 1 45.4363575244 2.33694165688 2.0251301057
5000 1 42.5579213719 2.5056199669 1.8874704317
4961 1 43.9238659515 0.472837311426 2.02742330524
5002 1 42.7357444238 0.246108924004 0.0435833967223
36 1 3.0097740528 5.40753308907 2.57440393068
77 2 0.533458123148 4.82637791306 2.43468807536
408 2 3.01782595121 3.83917748456 0.262670770751
80 1 0.145384382942 4.08208967394 0.049368731896
736 1 5.77249477602 3.69287490959 0.368196837219
366 1 4.40277297277 5.70921494277 0.574267168463
694 1 7.16367391784 5.70657157598 0.590386396532
733 1 5.78160580742 5.46491086656 2.58646139321
1392 1 11.3513775994 3.70087202813 0.364405660196
1064 1 8.5572975233 3.6957395046 0.365628835297
1022 1 9.95927467479 5.70155661452 0.577318592069
1061 1 8.60575678166 5.47049332975 2.58956215018
1389 2 11.3893748064 5.38493708347 2.48703524101
1720 1 14.1976095984 3.70388963205 0.373581663817
1350 1 12.7921257809 5.69390556801 0.58083071724
1717 1 14.1728964706 5.44932236369 2.61669433283
2048 1 17.0308791673 3.70896701862 0.372379036109
1678 1 15.6036294212 5.7108093533 0.623118271224
2006 1 18.3859643655 5.76190775327 0.604793513266
2045 1 17.0351878219 5.4819605924 2.63599705891
2376 1 19.7491043888 3.66970926182 0.316041293603
2335 1 21.1248279924 3.76129151938 2.31659119791
2373 1 19.6135090544 5.41953850927 2.64661315962
2387 2 20.9736340047 5.52627234226 0.554610712514
2759 1 21.634758503 6.6514061708 2.73551420359
2663 2 24.636053763 4.36346691437 1.67750305741
3028 1 25.8644120308 6.55177922377 1.3454614703
3029 1 23.1881855971 4.78911994284 3.28970201027
2695 1 24.1890943853 6.79433390988 2.85632238276
2986 1 27.1713844547 4.5256442247 1.6966791781
3318 1 29.970948456 4.4744401872 1.70435910473
3356 1 28.5846068204 6.4971293399 1.48213096751
3314 1 29.9448316947 6.71160115921 3.50576989623
3023 1 27.1145767128 6.71491537108 3.47744565793
3646 1 32.8170649684 4.54732768637 1.70924724991
3684 1 31.3601112511 6.50278644947 1.50597087554
3642 1 32.766290376 6.70404114811 3.50512430837
4012 1 34.20384045 6.53005622645 1.50185835293
3970 1 35.6138436957 6.71801093523 3.50269959874
3974 1 35.6395036863 4.53158178699 1.7239247028
4340 1 36.9916815495 6.55931229417 1.49762888397
4302 2 38.4071012883 4.61477863377 1.58172720024
4630 1 41.1588322168 4.56132396946 1.68559782807
4668 1 39.7803188672 6.56637780492 1.50039450559
4298 1 38.3793545677 6.76955933684 3.49384036584
4626 1 41.0694210526 6.77125261929 3.46482857289
4958 1 44.0210496607 4.36087208362 1.73917376442
4996 1 42.7501347539 6.58017057704 1.64187419804
4997 2 42.440961397 4.70535817652 3.54268185309
70 1 1.39563011348 7.34844097892 2.71230418919
404 1 2.8729590508 7.64255466481 0.763338033568
38 1 1.61493393612 9.72381672514 1.08545681051
392 1 2.91491346213 9.39633596195 3.07235948627
33 1 0.233207105302 9.46780538343 3.10337018707
362 1 4.34843296406 7.46176935153 2.75562988259
361 1 4.3176068488 9.67366346982 1.03629719709
689 1 7.18591719955 9.69454233813 1.0271332609
690 1 7.18927802356 7.46387158795 2.79514622638
727 1 5.79127814023 9.445411605 3.01490689088
732 1 5.74243288878 7.71185238188 0.777058831282
1017 1 9.98857265853 9.66600241037 1.02359314272
1018 1 10.0207916445 7.45156882597 2.81681565618
1055 1 8.61253697235 9.44487967731 3.02220060227
1060 1 8.59029601293 7.6943407091 0.81934241267
1388 1 11.3919192885 7.68516234253 0.829726283304
1383 1 11.3966087928 9.46030125724 3.03314644318
1345 1 12.801295244 9.67625145325 1.04264550991
1346 1 12.7829174817 7.46280704087 2.84214352742
1711 1 14.2263116946 9.48514827771 3.06292306599
1716 1 14.1712668782 7.69316341953 0.842392655161
2002 1 18.4932656762 7.48335893373 2.85301714511
1673 1 15.5303040534 9.71597901928 1.034855059
1674 1 15.5663750835 7.41507978292 2.86158513623
2039 1 16.8932270815 9.29173055999 3.18938042389
2044 1 17.0060565828 7.76444233986 0.89015653352
2001 1 18.2204214434 9.85879428556 1.08154143003
2334 1 19.915228462 7.78627341847 0.90908994877
2367 2 20.5326476615 8.633859213 3.44311214241
2329 2 20.5834191517 10.2255433711 0.885108465696
2722 2 22.7216001006 7.92212132432 1.07193669641
2323 1 22.9050020276 8.90801236226 3.33681822087
2059 1 24.4926848051 9.18298096873 1.42222500792
3022 2 26.2237763985 10.5088726627 0.847550795903
2643 2 24.3942466976 10.633056459 3.26841595635
2657 1 25.52070461 8.55683482592 3.65390330684
2979 1 26.9738952465 10.7939912848 3.12214115351
2985 1 27.126647169 8.46219960702 1.49478161832
3307 1 29.9152276963 10.7117627835 3.09375953978
3313 1 29.9327889679 8.52693013873 1.31827882726
3350 1 28.5886666704 10.5271347448 1.03147231743
3351 1 28.4887161924 8.75945906993 3.38248233967
3635 1 32.7572923079 10.731514537 3.08984721137
3641 1 32.7652248039 8.51997651625 1.29048655088
3678 1 31.3593643733 10.5198629086 1.07702049997
3679 1 31.3489266718 8.72299788419 3.31228286439
4006 1 34.1683436237 10.5350723794 1.07215570965
4007 1 34.1738101231 8.72674616329 3.29854676077
3963 1 35.5680794211 10.7596418758 3.08382171916
3969 1 35.5900230043 8.54815000111 1.28532693895
4334 1 36.9955733759 10.5659296996 1.08540891106
4335 1 36.9793132572 8.7684361301 3.29538219344
4291 1 38.380872314 10.8125686708 3.09681931226
4297 1 38.3865153439 8.56763397568 1.2910563858
4619 1 41.2507179242 10.8281866956 3.17466476022
4625 1 41.1850184322 8.53498165445 1.40996406384
4662 1 39.8313047486 10.5827971321 1.13525914748
4663 1 39.7372317239 8.82375756135 3.2892616837
4954 2 44.606057673 7.59438342713 2.97532996104
135 1 45.0565630638 8.10304418577 0.573770455238
71 2 44.7787168228 10.245965705 1.09110866943
4953 1 42.5417805925 10.5706311583 1.23009815633
4991 1 42.6001457351 8.81267557691 3.34300838292
398 1 3.02490070617 11.7269928613 1.36437473423
399 1 1.61501891829 11.4854622511 3.40820231589
391 1 3.10516118817 13.4589446964 3.58748955663
453 1 1.75907395748 13.8625619931 1.7739835223
129 1 0.506833595816 11.9022600227 1.32962079318
354 1 4.4814606369 13.689172973 1.56097108267
355 2 4.43579389245 11.4323346056 3.28801647859
682 1 7.27408307661 13.6682990556 1.46783603148
683 1 7.23065536237 11.4485897752 3.23941670187
726 1 5.80461865736 11.6724613011 1.25297185722
719 1 5.88908594073 13.4538065374 3.49562272597
1010 1 10.014727398 13.7093067589 1.41918394502
1011 1 9.99459981938 11.4684036114 3.25534056802
1054 1 8.63055983835 11.6853023237 1.22962449579
1047 1 8.64481246787 13.4842413582 3.44642995398
1382 2 11.3903749022 11.5852235439 1.33189798409
1375 1 11.3981340412 13.4848557736 3.43028482289
1338 1 12.74942236 13.7369902743 1.41081908179
1339 1 12.827688433 11.4695100649 3.27456866153
1710 1 14.111248168 11.7281382996 1.20774943528
1703 1 14.1314005118 13.4763005189 3.40839563727
2366 2 18.29425208 11.0151554877 3.33257684791
1666 1 15.4063328492 13.8492929029 1.30302167534
1667 1 15.672396047 11.4927675522 3.20636795842
1994 1 18.4374094025 14.0524750493 1.54423869796
1995 2 16.631870947 11.8299679494 0.821124684937
2031 2 16.5653164967 13.7784990558 3.16897432157
2688 2 21.5656870942 12.4253456125 3.22061356305
2359 1 19.8071873422 12.1710475715 1.79706463129
2678 1 21.3515206731 13.8920596571 1.1757007961
2679 1 20.626838999 14.4201206692 3.45086702937
2421 1 22.5691270341 11.3212811239 1.55503824399
2694 1 24.7858813702 12.1854870753 1.35214593086
2642 1 25.7160779031 13.109036959 3.16600429683
2680 1 23.2505921463 13.9144063924 2.83578997272
3014 1 25.7481662131 14.4268809117 0.61677633051
2978 1 27.2226829468 12.667877478 1.03332083069
3306 1 29.9903698194 12.5275570369 0.860344523437
3343 1 28.5979514406 12.696980933 2.92378864127
3342 1 28.6673273567 14.5551159196 0.546166345638
3634 1 32.7522347206 12.5324158162 0.870225220952
3671 1 31.3552947413 12.730764828 2.88809109261
3999 1 34.1604614358 12.7472884496 2.86795124233
3998 1 34.1825884754 14.5270339166 0.626381124403
3670 1 31.4054418576 14.5377071656 0.610380466298
3962 1 35.5945081062 12.5508464705 0.880339934223
4327 1 36.9777910081 12.7842778493 2.87602137511
4326 1 36.9860222813 14.5594965786 0.641017038646
4290 1 38.409815736 12.5804862415 0.887103608667
4618 1 41.2414483651 12.6069897663 0.917872869915
4655 1 39.8235677881 12.8143814504 2.89996696462
4654 1 39.8269350367 14.6033449385 0.666546464992
4946 1 44.2234898259 11.1656637526 3.24561295107
63 1 45.620790183 13.2259239131 3.22951634921
4938 1 42.6068087112 12.880157674 2.95069330357
4990 1 43.9085746077 12.6551077166 1.00605121758
125 1 45.3899567586 14.5613489846 0.721428856224
83 1 1.35105194835 16.2739074493 0.242505235375
26 1 3.19653552971 15.7503600966 1.75003760447
382 1 1.78627384355 17.5961350222 2.19116565052
10 2 3.5002067514 17.489820496 3.60275492493
345 1 4.60510940865 17.7563713537 1.71479135377
673 1 7.20604125472 17.7396025243 1.8316458055
718 1 5.9141531043 15.6364363242 1.68002581997
1001 1 9.95636890727 17.767351265 1.83965941191
1046 1 8.64363789951 15.7332440571 1.62101506931
1374 1 11.3509718743 15.7344745752 1.61895635953
1002 1 10.0149341279 15.513792011 3.64920194445
1329 1 12.6854475223 17.8088854753 1.8245596497
1702 1 14.0208079711 15.8327935854 1.54784668722
1330 1 12.7530581474 15.5242362089 3.6261585874
1657 1 15.5618871603 17.7942781297 1.90046436008
2030 1 16.9739949852 15.8806596424 1.75118272906
1985 1 18.487064127 17.9175311174 1.91631097673
1658 1 15.2783159763 15.6275551133 3.58087017623
1986 2 18.8944412002 15.8394804627 3.49889337265
2869 1 20.0070182267 16.0139682461 1.62281425749
2824 1 22.4545534652 16.2153156968 2.74245445721
2870 1 21.5950052766 16.2405192764 0.0609988626612
2866 1 23.4035699705 14.6317558273 0.590913044415
3006 1 24.9939028337 15.7488614458 2.59643603563
2641 1 24.2944146214 16.7237175178 0.463268858632
2970 1 27.3963998443 14.7896117418 2.4953634248
3298 1 29.9853513179 14.7419746298 2.64696803265
3297 1 30.0309970648 16.5623452048 0.38092139964
3334 1 28.7515917402 16.8254227426 2.40325882971
2969 1 27.1099012946 16.489168617 0.659763207399
3626 1 32.7712087835 14.7469674176 2.64510169077
3625 1 32.8160506539 16.540605208 0.409405241472
3662 1 31.4074924131 16.766964355 2.42609825225
3990 1 34.1866662338 16.7650753284 2.42904131378
3954 1 35.5683408926 14.7599346847 2.64316454612
3953 1 35.5828526814 16.5446834877 0.418034993786
4318 1 36.9779805317 16.7694595519 2.43025421083
4282 1 38.4041452961 14.7925201243 2.6664527745
4610 1 41.2198966419 14.8465029533 2.67614955224
4646 1 39.8072532674 16.8159250611 2.45215922227
4609 1 41.2156567833 16.6547901183 0.45124438854
4281 1 38.4065347062 16.5861570329 0.440159507977
4982 1 42.5861130308 14.6594933806 0.625086049778
27 2 43.8816354877 14.9356184789 2.52048850121
62 1 45.3057201563 16.867214973 2.447066392
4974 1 42.6270368612 16.896913995 2.48009683669
4937 1 44.0816890339 16.6605143722 0.428797018979
17 2 0.598198868107 19.5431695024 2.43372811263
573 1 3.09877892759 19.6773665372 2.06255128587
244 1 1.70179789528 21.6611476401 1.92324343652
901 1 5.85715406128 19.8046854366 2.03412526753
859 1 7.16837143734 21.8082818876 2.25351173867
531 1 4.40929520437 21.7422155139 2.22914692011
1229 1 8.54521954929 19.7773786306 2.05677582864
1187 1 9.92416066191 21.8064901363 2.28120945835
1189 1 9.90666431529 20.0391527271 0.0313225879864
1557 1 11.3178801117 19.816950644 2.05564340104
1885 1 14.1452140391 19.7991055355 2.06073605137
1515 1 12.7553331296 21.8047163613 2.28316912871
1517 1 12.754824741 20.0386388316 0.0597761480654
2213 1 16.9916174636 19.8199317386 2.02667961038
1843 1 15.590743458 21.8030778281 2.25854637102
2173 1 18.510132802 20.0910885458 0.107376434642
1845 1 15.5707680145 20.0131863588 0.0629712872883
2351 1 21.5730757749 18.3169000086 1.92482898351
2828 1 19.9575878122 20.0686182246 2.10609766335
2541 1 21.4033144373 20.342133055 0.0685900090781
2313 1 24.3013867609 18.3926652557 2.29301214816
2868 1 22.9650486241 20.4110754724 2.03185131396
3196 1 25.7116574123 20.6110039551 2.04540212983
3198 2 25.9127563725 18.5504114263 0.224806141241
3157 1 27.1395969828 18.6475774542 2.28140994721
3485 1 30.053577288 18.8112696543 2.20303850696
3524 1 28.579137375 20.7200000157 2.00882109554
3526 1 28.593337759 18.5275045122 0.236797131747
3551 1 30.0320983702 20.5335469954 0.00663537519702
3854 1 31.4411945715 18.5603353863 0.191894594283
3813 1 32.8230950137 18.7864986608 2.21391891936
3852 1 31.4606516272 20.8024874217 1.999416576
4180 1 34.2290666015 20.8066452585 2.00138640352
4182 1 34.2110931238 18.5664144268 0.202795380596
4510 1 36.9879555712 18.5709222291 0.20915797991
4141 1 35.5936599265 18.7860643453 2.21335208565
4508 1 36.9879509089 20.8106367938 1.99010490076
4797 1 41.1982596911 18.8582990515 2.25878202152
4469 1 38.3715453459 18.7822138463 2.2208538946
4836 1 39.7266042592 20.7991915583 1.97428866289
4838 1 39.8128336579 18.6309019691 0.232527084617
4863 1 41.227286666 20.6606413783 0.0393644098955
246 1 45.6765940996 18.4845601463 0.285968575686
245 1 44.9327677946 21.3209989778 2.20026405859
5125 1 43.8858503481 18.9582757669 2.21078811864
5164 1 42.501105327 20.949485275 2.07198490265
5166 1 42.6305160284 18.6315183553 0.249412368715
5191 2 44.012949565 20.5571965044 0.0293063177896
572 1 3.13566107986 21.9906841672 0.117560758054
569 1 3.01049272818 23.7241725623 2.43297009007
627 1 1.70355936501 23.9203722984 0.292670304664
5122 1 0.393968397605 23.5557324529 2.2816684035
900 1 5.74979840011 21.9908696078 0.191295531134
530 1 4.37643026456 24.0176442846 0.402839585216
858 1 7.12480138409 24.0161934501 0.453041418815
897 1 5.75069215657 23.7873823299 2.48160550888
1228 1 8.53066663577 22.0230788729 0.235729624142
1186 1 9.93426498496 24.0221330551 0.485342999764
1225 1 8.53560725124 23.8142024474 2.50157560028
1556 1 11.3391522037 22.0210703226 0.275580570865
1553 1 11.3522763304 23.8014628742 2.50703038111
1884 1 14.1678792707 22.0152304439 0.275897606905
1514 1 12.7654223913 24.014607315 0.497455049859
1881 1 14.1899616269 23.7986820548 2.50353002102
2171 1 18.5276067698 21.9961663262 2.25751955815
2212 1 17.0218702812 22.0145119447 0.282186325444
1842 1 15.5967329777 24.0080975572 0.500215403126
2170 1 18.3871949937 24.0489845931 0.477692892319
2209 1 17.0180033237 23.7976503845 2.52660549923
2540 1 19.8826870219 22.1924167729 0.239236765738
2495 1 20.1002775435 24.3394046055 2.21601364161
2494 1 21.5077177374 22.3005058119 1.93829460206
2531 2 21.8216310159 25.352752117 3.57619977106
2537 1 21.3806571378 24.24015132 0.0213252353857
2923 1 23.0457807886 24.6626131486 1.65833825727
2826 1 24.4093146004 22.6229476436 1.81784840743
3192 1 25.8401350546 24.6965953904 1.60023066621
2859 1 24.4655230972 25.0364081293 3.59522632482
3154 1 27.204432374 22.6966569252 1.78401518883
3478 1 30.0622376942 25.0036656647 3.58329673871
3482 1 30.0378887233 22.7528453526 1.79756834577
3520 1 28.6620576497 24.7355727759 1.60597650769
3150 1 27.2446452744 24.9832227688 3.58695571818
3806 1 32.868290005 25.0385606753 3.55041308608
3810 1 32.8569110843 22.8156879857 1.7710264846
3848 1 31.4518328779 24.7934375166 1.56392222159
4176 1 34.2668173264 24.8379398991 1.54007318904
4134 1 35.6587572535 25.0740540569 3.56651840546
4138 1 35.6384864546 22.8277006822 1.76745317352
4504 1 36.9985318011 24.8585023985 1.56983345239
4462 1 38.4031305226 25.1067823479 3.54294739335
4466 1 38.3707490897 22.8391847596 1.76316319747
4794 1 41.0608065894 22.847814652 1.8058280496
4832 1 39.7682355455 24.8761408274 1.59405577441
5190 1 45.2149404086 22.8065205121 0.162512803608
5160 2 42.3182726186 24.9689397947 1.66509660107
5161 1 43.6217539689 23.2777818475 2.20121318767
5118 1 44.5632032928 25.5127441393 2.90062798668
242 1 0.251097577893 25.6129663996 0.929953208863
198 1 1.66069266511 25.7221660768 2.76222783596
568 1 2.9753573512 25.9845081095 0.683937780388
563 1 2.97397638944 27.7571927322 2.88484678857
197 1 1.47570440504 27.9077207753 0.874782888338
241 1 0.207416654494 27.6511787664 3.06970865538
526 1 4.37011688005 25.7797443273 2.72327058647
525 1 4.36010617432 28.0016969742 0.925759570171
853 1 7.12387133759 28.0257866711 0.941857134231
854 1 7.13465268207 25.8023418048 2.74640926657
891 1 5.7621007976 27.7818327575 2.96572855777
896 1 5.7398218537 26.0186296589 0.686736297117
1181 1 9.9583295969 28.0122436804 0.967887230799
1182 1 9.95299255436 25.8023453142 2.74514555908
1219 1 8.54637241751 27.7910875176 2.97664395953
1224 1 8.53051268541 26.0198633739 0.720619891802
1552 1 11.357001912 26.011060851 0.726178632471
1547 1 11.3962870595 27.7884591664 2.96645537783
1509 1 12.7755630045 28.0064013586 0.957160345209
1510 1 12.7861923869 25.7878906087 2.73286157851
1875 1 14.200445454 27.780343621 2.96910066888
1880 1 14.1871246984 26.0098969123 0.720418335115
2166 1 18.239512881 25.7812577036 2.72937607422
1837 1 15.5718540906 28.0313168435 0.953913153038
1838 1 15.6066432385 25.803995266 2.74315200985
2165 1 18.3029056622 28.1148730998 0.99314101792
2203 1 17.0377550066 27.8365125616 2.96218520001
2208 1 16.9438343967 26.0436655112 0.697952177828
2536 1 19.5502700295 26.1459762393 0.66356582618
2589 1 20.0384480648 27.3257920226 2.99669442026
2814 1 20.5776223643 28.8111798152 0.991964315881
2551 1 21.7429935312 26.6894511493 1.36981753826
2843 1 21.4951059392 29.1789589051 3.22149704
2487 1 23.0653245236 27.1533485213 3.38680978062
3186 1 25.82911755 28.8314271616 1.21229599096
3251 1 24.4983806808 26.711844876 1.36020568738
3187 1 25.8764034177 27.0025972177 3.36272702912
2851 2 23.1402689527 28.72241157 1.41554763961
2488 1 24.4914801818 29.0301247871 3.20739341221
3149 1 27.2648809638 26.7654390257 1.39189262999
3471 1 30.0704725503 29.0299689485 3.09338242816
3477 1 30.0399639554 26.7904455529 1.34293466907
3514 1 28.6294808746 28.7979793558 1.11192899386
3515 1 28.6627650881 27.0096120119 3.36056947796
3143 1 27.2636177973 29.020443365 3.13706631841
3799 1 32.8692275205 29.0628071192 3.09680215488
3805 1 32.8585156374 26.8221926525 1.31771729058
3842 1 31.4477248324 28.8217419657 1.08982227237
3843 1 31.4748254053 27.0263972196 3.32805489038
4170 1 34.2503512388 28.8554117419 1.0816660487
4171 1 34.2641171781 27.0558165913 3.32435131719
4127 1 35.658126867 29.0927675576 3.09285386948
4133 1 35.6559259839 26.8677566214 1.31999474705
4498 1 37.0667604217 28.8882035671 1.08965037643
4499 1 37.0582105422 27.1090484472 3.34065129786
4455 1 38.4862329816 29.1371107017 3.10826409816
4461 1 38.4329722071 26.8905925666 1.32501713104
4789 1 41.1374139319 26.8810320471 1.30330967732
4826 1 39.8631421574 28.9134945401 1.09627577357
4827 1 39.8402522786 27.1626498368 3.3035099539
4783 1 41.388562431 29.2149778981 3.03723542483
240 1 44.5793699692 27.9022661829 1.26163329544
5154 2 42.5200143923 28.8427086646 1.00667720313
5155 1 42.8636554962 27.2348480795 3.00113354788
289 1 0.332643633088 30.0336849832 1.17100188979
191 1 1.60791328323 29.6689715485 3.14955334943
293 1 2.93045786418 29.96799911 1.14068635836
227 1 1.65515769152 32.0435836002 1.50975508639
555 1 2.94722295516 31.7088703012 3.48904266223
234 1 0.0136947492992 31.338800184 3.18045268567
518 1 4.32069060007 32.019882961 1.46299679661
519 2 4.37820194577 29.7719116691 3.16984253309
846 1 7.16642573356 32.0169584749 1.44039698731
847 1 7.15133425344 29.7775858812 3.18987240817
890 1 5.72844062273 30.0294798561 1.16001520486
883 1 5.7877165178 31.7871062264 3.43418144226
1174 1 9.97897093235 32.020887066 1.44280227832
1175 1 9.99255547513 29.7703099638 3.19500452149
1218 1 8.55488558597 30.0144556685 1.19816789557
1211 1 8.57265175618 31.7397950563 3.42463009862
1546 1 11.3822910819 30.0192266747 1.20194202299
1539 1 11.4323821001 31.7660250843 3.42711652458
1502 1 12.7840570611 32.046339169 1.43071002083
1503 1 12.8223674862 29.7958384682 3.20318331173
1874 1 14.1544773615 30.0223312646 1.18671088124
1867 1 14.2185519334 31.8316873503 3.43446930324
1830 1 15.509793621 32.0334446462 1.42932525854
1831 1 15.5715150941 29.7597152077 3.18799870564
2158 1 18.2840844512 32.0153337992 1.47511131861
2202 1 16.9223336386 30.0568589346 1.19330930674
2159 1 18.7777728317 29.8413836946 2.98365567252
2195 2 16.9254395889 31.5649590281 3.3590779382
2530 1 20.4671268969 31.1046190097 1.40150731428
2523 1 20.4713357036 31.9493193226 3.5605126746
2486 2 21.988420481 32.2008719179 0.00541274384153
2806 1 22.989307546 30.9612906806 3.03186655736
2815 1 25.8090782829 31.0260789256 2.86220966379
3179 1 24.2254708618 30.8804802747 0.93551497473
3178 1 25.8062434934 32.7334345087 0.702918473066
3142 1 27.1720924509 30.7700192965 0.836701920583
3470 1 30.0247668615 30.8201948386 0.850186427215
3507 1 28.6529099783 31.0308660382 2.82835974544
3506 1 28.5757648858 32.8076950741 0.613296288124
3798 1 32.8327958397 30.8501290426 0.852202634316
3835 1 31.450762734 31.0640135421 2.86486779316
3834 1 31.4060488989 32.8475140888 0.623333654216
4162 1 34.2266021853 32.8670203755 0.614700132765
4163 1 34.2558315579 31.0892476228 2.86484663411
4126 1 35.65073898 30.8725874801 0.852698199563
4491 1 37.0703479763 31.100970049 2.8657586009
4490 1 37.055799163 32.8733519269 0.603229619738
4454 1 38.4911935586 30.8968795385 0.846237946193
4782 1 41.3598297875 30.8973250544 0.811983468341
4819 1 39.9358468938 31.1103635972 2.83824690228
4818 1 39.9146555111 32.8765343448 0.561197468939
235 1 44.1410589148 29.457522918 3.03091025302
5111 1 43.8777972565 30.8242639872 0.838699263512
5147 1 43.0012731768 31.8571055411 2.84130589376
554 1 2.94957684386 34.0902195063 1.74448269383
190 1 1.31826639126 34.4990205495 0.0604801019156
410 1 2.86905243513 36.3655806067 0.0258048555236
509 1 4.41880982914 35.9746038365 1.92175067834
837 1 7.21742789389 36.0006802591 1.95734600498
882 1 5.78503000453 33.9947713326 1.71453436891
1165 2 9.97963304148 36.1240897608 1.82974703214
1210 1 8.5937678233 34.0266484957 1.68651537567
1538 1 11.3629870148 34.0406150079 1.68703935711
1166 2 10.0036855193 33.5856860246 3.65051590898
1493 1 12.7521143616 36.0328259603 1.9440393078
1866 1 14.171561102 34.0521377675 1.70378294534
1821 1 15.565503316 36.054127478 1.89966331604
2149 1 18.4046029531 35.8582681961 1.87798964064
2194 2 16.7558819249 34.0588107917 1.42481175978
2150 1 18.2608240651 33.7852539387 3.59933812075
1822 1 15.6982819863 33.8122479865 3.64113481649
2850 1 22.2245582108 32.9887005321 2.05481051121
2522 2 19.8102404981 33.5641567713 1.78730943909
2514 1 20.6992598154 34.9366398624 3.29514249249
2913 1 21.4985863455 34.6723828641 0.403183128997
2836 1 24.4316296312 33.0025051994 2.79242400839
2798 1 23.0748129452 35.0790844896 2.58596497081
3170 1 25.7811723362 35.0243723494 2.49051833904
2842 1 24.4049750838 34.690352865 0.542035462103
3462 1 30.0118235295 33.0652275477 2.6266665967
3134 1 27.2373299991 33.0338218305 2.6638610768
3133 1 27.1348009479 34.7983175334 0.399932712853
3461 1 29.9865596683 34.8534731513 0.410575093129
3498 1 28.612970226 35.0628923726 2.40150587951
3790 1 32.8295661753 33.0926823084 2.61697781543
3789 1 32.7974915223 34.871987732 0.396937354315
3826 1 31.4006179568 35.1171989846 2.39628211149
4154 1 34.2362560858 35.0987688979 2.37275772832
4118 1 35.6552707349 33.0914419718 2.60993449985
4117 1 35.6346675812 34.8687172001 0.369896271204
4482 1 37.0538430585 35.0883388757 2.3534590846
4774 1 41.1441165576 33.1608780121 2.63979477712
4446 1 38.4771951095 33.084038458 2.58916986048
4810 1 39.836135195 35.1122016548 2.30678238618
4445 1 38.4713972621 34.8610934658 0.326474833169
4773 1 41.3237470629 34.8946760274 0.332136227614
5110 1 44.9795838378 32.9207925133 1.54002820306
5146 2 42.595061288 32.992098056 0.682881915013
247 1 45.3594889731 35.1194421663 2.20472892177
5138 1 42.8834467393 34.8524626186 2.43834779267
5101 1 44.2045799738 34.7385880857 0.104628764443
40 1 3.12729921859 3.25130843129 4.46016743378
540 1 3.11607418186 1.00049634845 6.19414808429
174 1 0.43361948545 0.820392534824 6.13987619625
402 1 1.69495825869 2.97424632026 6.43833413559
406 1 1.793453968 1.29974871085 4.15057738508
78 1 0.43716819482 3.22259803146 4.23842238996
407 1 4.4797726599 3.01872629635 6.42367466991
368 1 4.49790227709 1.19757474361 4.20381259028
692 1 7.22983137054 3.00407102593 6.39067943622
696 1 7.22756960929 1.19048832158 4.15120763636
735 1 5.85179927498 0.97116798873 6.18435427762
734 1 5.83646948036 3.23418555906 4.38323164787
1020 1 10.0171514394 3.01453223353 6.37473069054
1024 1 10.0022172386 1.22867954163 4.15094259266
1063 1 8.6188482814 1.01334408243 6.15391461383
1062 1 8.61522797379 3.24090105988 4.37355415896
1390 1 11.3976522554 3.2419180866 4.3651179639
1391 1 11.4360665696 1.0322226229 6.14376915908
1348 1 12.8113718347 3.04544508712 6.37194313239
1352 1 12.7929275305 1.22104155306 4.1391531863
1719 1 14.2345882352 1.03343308091 6.14610873942
1718 1 14.1921511491 3.28691453102 4.37796115109
1676 1 15.6253131425 3.07206160026 6.39360270089
1680 1 15.5955384067 1.30855646947 4.1518890305
2008 1 18.3566902886 1.27235993089 4.14546830505
2047 1 17.0792367576 1.03306183377 6.15412939412
2369 1 18.4843141711 3.08985165261 6.46583224666
2046 1 17.0377940369 3.27556856892 4.43780673063
2698 2 20.4120174518 0.601172220143 4.44442374997
2697 1 19.8815816375 3.1618681448 4.480609042
2662 2 22.3701845013 3.0915564968 4.42808698214
2370 1 19.978819432 1.13003184112 6.54001845959
2333 1 22.8580956112 0.652232419948 4.00278901582
2701 1 24.5298259309 2.64071094127 3.89920342739
3033 1 25.8724929929 0.623710750417 4.05911731622
2704 2 24.6186353329 0.971236308781 5.81163382221
3030 1 25.8547175031 2.94783202291 5.92973017401
2991 1 27.2575643732 2.6881636977 3.92696637749
2992 1 27.2632107705 0.898918232895 6.1054735837
3319 1 29.9588679475 2.60607489625 3.8665789272
3320 1 29.9971411491 0.953234823242 6.10531676075
3358 2 28.5944688206 3.02867984263 6.00937130333
3361 2 28.4648354451 0.48676999751 4.16940680654
3647 1 32.7905960383 2.72151064169 3.92233642456
3648 1 32.8483072188 0.973420317201 6.18508816305
3686 1 31.3668933783 2.92525481972 5.88393999412
3689 2 31.5703300591 0.634606465538 4.25577622127
4014 1 34.2273832333 2.96602950781 5.91055220234
4017 1 34.2409335982 0.751274192027 4.14978269156
3975 1 35.6582556796 2.7480667194 3.92095686214
3976 1 35.6573121275 0.982749789299 6.15879761433
4342 1 37.0516502387 2.98842695107 5.92261903619
4345 1 37.0278586017 0.718551265189 4.14294702752
4303 2 38.40890287 2.56668755381 3.92235520599
4631 1 41.1241394503 2.75399423328 3.90643835761
4304 1 38.4756199981 0.996743354972 6.13628609597
4632 1 41.0783118948 1.02649326606 6.09300942725
4670 1 39.782576803 3.05024270312 5.91682172074
4673 1 39.8095434559 0.738704290039 4.05694604449
218 1 45.0981572419 0.963696725432 3.99710121474
79 1 44.9274823468 3.04830265985 6.16102418673
4959 1 43.7062373532 2.80509892006 3.97362399968
4998 1 42.3996255501 3.02392626431 5.97713760126
5001 1 42.5387531702 0.721554032286 4.07555845483
37 1 43.719878461 0.987626248728 6.12798449843
401 1 1.64904693479 5.24445082248 4.60662760609
30 1 2.99178794887 4.99895490882 6.66322210924
393 2 1.85076485581 7.10081137861 6.67675577759
73 1 0.513464459277 5.2140434355 7.11574964665
400 1 2.96772762419 7.26384397243 4.69636738975
363 1 4.41087150607 5.25122457311 4.59625506197
691 1 7.21747703948 5.25287765455 4.5831902436
729 1 5.83491555323 5.02858437687 6.59451281871
685 1 7.22014939536 7.0411381579 6.79817445285
357 1 4.42887223594 7.01535707273 6.78106451372
728 1 5.78959801793 7.25316316302 4.78346478201
1019 1 10.0237794014 5.25595383476 4.57341907164
1057 1 8.62345281363 5.02394728465 6.57977199265
1013 1 9.97742008981 7.03314886785 6.82908235127
1056 1 8.62514373066 7.24566996719 4.79581750873
1385 1 11.3813868976 5.02301002279 6.58908234878
1347 1 12.7653390606 5.26486243766 4.59598177366