ITEM: TIMESTEP
18000
ITEM: NUMBER OF ATOMS
5248
ITEM: BOX BOUNDS pp pp pp
0.0 45.68
0.0 36.5618393957
0.0 36.5618393957
ITEM: ATOMS id type x y z
409 2 3.2659679168 1.15789772221 2.27877817633
39 1 1.92235248645 3.26972421702 2.31192936075
181 1 0.947226967327 0.950453997895 2.18877028178
41 2 1.14572559347 2.30631048787 0.118337193477
697 1 7.17740329293 1.58729637345 0.208679784148
737 1 5.78100949282 1.35981500129 2.21329920488
695 1 7.14978107331 3.38629342605 2.45702889751
367 1 4.38673964429 3.35647767498 2.37641889069
736 1 5.79470601514 3.5810893973 0.417036746763
369 1 4.43949834842 1.62125878965 0.180046117755
1025 1 9.98511005489 1.63451462872 0.244016969403
1065 1 8.5544482935 1.40155676934 2.24973853981
1023 1 9.97430101667 3.41312734301 2.48317900725
1393 1 11.3765833653 1.43478929834 2.26174542749
1064 1 8.59392063835 3.61699169372 0.456951721975
1392 1 11.3993013835 3.65253769545 0.484784729399
1353 1 12.7921647249 1.67109176894 0.255201579696
1721 1 14.1891584492 1.47032216066 2.26489290478
1351 1 12.7928302612 3.44022176692 2.50215358701
1681 1 15.5702039977 1.72404355837 0.239305138752
2049 1 16.9890884098 1.49868752356 2.17699730184
2009 1 18.39812833 1.68841561298 0.259659292121
1679 1 15.622451125 3.46162110618 2.50883928503
2007 1 18.553035237 3.39559995346 2.51850759914
2377 1 20.0650864858 1.45163571631 2.13370890049
2477 2 22.2572589793 0.247889936959 2.66911213718
2337 2 21.7563035958 2.45994742814 0.281365270641
2706 1 22.6973737681 0.139474975608 0.14612684441
2336 1 23.0805922164 2.34420367414 2.19973694756
3032 1 26.0324559176 2.31868078753 1.85909983777
2665 1 24.4562162583 0.374969493925 2.06589819107
3034 1 25.7830867496 0.268323968707 0.0412247238912
2731 1 24.3435473397 2.18305469506 0.0187247909798
3360 1 28.6583996052 2.50894974268 1.84754010642
3321 1 30.0591614145 0.532659621232 2.08900490202
2993 1 27.312153728 0.412871761395 2.0648371646
3362 1 28.6596950519 0.276925401132 0.0312852562238
3649 1 32.8787931156 0.576390203801 2.10832206325
3688 1 31.4396433952 2.56001324384 1.85770895421
3690 1 31.4744249756 0.340431217237 0.102970135627
4018 1 34.2408846653 0.355856728194 0.0710913065128
4016 1 34.2518161125 2.59074653085 1.87836691924
3977 1 35.6441045575 0.584242126067 2.08341470302
4344 1 37.0359561947 2.60360863605 1.856472914
4346 1 37.0186642593 0.371243363663 0.0547736996348
4305 1 38.4243703559 0.590416634472 2.04704971674
4672 1 39.8244168519 2.6192479542 1.84641777591
4633 1 41.1740613282 0.577996746186 2.02056541504
4674 1 39.814336723 0.37892501497 0.0292332356445
81 1 45.193236599 2.71487046637 1.87253193273
5000 1 42.6141989502 2.44557407143 1.83914538829
4961 1 44.1445662299 0.478651700703 2.10147733455
5002 1 42.6777127859 0.374892052073 0.076766084439
408 1 2.91715076083 3.912956587 0.244611371156
36 2 3.13485180338 5.45035055094 2.40670412558
77 2 0.0680100922449 4.90286320074 2.71402380824
35 2 0.565662419475 7.14310674276 0.554591240479
70 1 1.35571849254 7.15136243204 2.99317087141
366 1 4.51307492611 5.61175308818 0.587521039018
694 1 7.18958230653 5.60129721971 0.672607414653
733 1 5.75862575775 5.38092077102 2.68274802396
1022 1 10.0093766731 5.64459037522 0.70531861801
1061 1 8.56280175026 5.38569206019 2.69173282861
1389 1 11.3962749823 5.41832328191 2.7140632304
1350 1 12.8129785013 5.67895869722 0.737115511378
1717 1 14.2151952429 5.43405075934 2.73296805349
1720 1 14.2061626793 3.6890646856 0.500550914041
1678 1 15.6323147125 5.66647534597 0.757836474971
2006 1 18.442201257 5.66802840856 0.809800653355
2045 1 17.0880024169 5.38715614922 2.79782180575
2048 1 17.0576757599 3.67866173419 0.527291625158
2335 1 21.192387088 3.67243068104 2.5174864794
2376 1 19.9202893164 3.79334235671 0.474673751248
2373 1 19.8664143585 5.50075543976 2.82441581081
2387 1 21.3457011599 5.92706160865 0.814607699487
2767 1 23.0350919227 4.29801688795 0.176851202842
2722 2 23.2567715903 6.9603770803 1.9691008345
2663 2 24.7972788517 4.12155477348 1.71861180109
3028 1 25.8118177473 6.51933737193 1.61362633317
3029 1 23.0821197232 4.92311470705 3.01093140596
2702 1 25.979481579 4.88988880154 3.63967834039
2986 1 27.3340445688 4.53019908828 1.68627727709
3318 1 30.02402889 4.54271316773 1.62754360484
3356 2 28.6335572145 6.53303403647 1.23778859239
3023 1 27.384749239 6.83378425093 3.48213554259
3314 1 29.946379938 6.78813309011 3.42544848503
3646 1 32.8180603072 4.57616474338 1.64770639865
3684 1 31.3746589051 6.55161695253 1.44252195794
3642 1 32.8083834471 6.78833077241 3.42473929548
4012 1 34.2068340516 6.58604329769 1.41271705965
3685 1 31.4032729009 4.80298302498 3.64031926786
3970 1 35.6192617466 6.82108817507 3.42062780261
3974 1 35.6284140238 4.60092024717 1.63782354991
4340 1 37.0171648201 6.61441359011 1.41915525695
4341 1 37.0254633876 4.82658368408 3.62948124218
4298 1 38.4122159294 6.85945226596 3.43236972772
4302 1 38.4306019442 4.62376472193 1.64177737999
4630 1 41.2299315747 4.61158585222 1.69125636403
4668 1 39.83292401 6.64184700236 1.46269397951
4626 1 41.2130880223 6.92954189495 3.49000398452
4669 1 39.8180610234 4.87630004059 3.64672311132
4958 1 43.7255994726 4.64361525802 1.76964032089
4996 1 42.5436736829 6.73228808609 1.5415500504
4954 1 44.147370858 6.8518914041 3.41936915082
38 1 1.42886984188 9.2024043418 1.13442054465
404 1 3.0022006478 7.44958804819 0.865786623071
392 1 2.79710021565 9.1886455097 3.15144194756
362 1 4.29190620947 7.34652858467 2.97580233963
361 1 4.33190928018 9.5284580383 1.196952865
689 1 7.21679547068 9.60845412792 1.1698315893
690 1 7.16802225241 7.38688569177 2.92986234119
727 1 5.73285204251 9.34487149662 3.16240529878
732 1 5.8193868884 7.62103457335 0.91906751875
1017 1 9.98341591548 9.63721337957 1.14124583691
1018 1 9.94105771662 7.36192887113 2.91999135452
1055 1 8.57742557467 9.41121136063 3.15287878028
1060 1 8.58766387447 7.61614959639 0.910546840497
1383 2 11.2423491379 9.21155461027 3.10947126192
1388 1 11.4282019542 7.68459902665 0.962386082302
1345 1 12.8080305615 9.73710305638 1.23908492535
1346 1 12.8110465174 7.42390260621 2.9369950785
1711 2 14.3827834984 9.20307803655 3.13481156755
1716 1 14.2142517038 7.68949836703 0.976234266676
2002 1 18.4391503705 7.43296153703 3.05984719985
1673 1 15.6091557223 9.66161613135 1.20625748187
1674 1 15.6891741881 7.3679505297 2.97957238807
2039 1 17.0239892742 9.45614741545 3.26835016917
2044 2 17.0248412941 7.63988036539 0.977703877698
2001 1 18.309327015 9.6443834792 1.26324207982
2759 1 21.3216529354 7.38936495012 3.01746993034
2334 1 19.7447875145 7.70551084546 1.03289497086
2367 1 19.8653996157 9.34327489964 3.27187732509
2372 1 22.6520320199 8.41453754547 0.435691350807
2329 1 20.9591776517 9.73256774808 1.1848371434
2323 1 22.8606331499 9.17364482133 3.23868978625
2421 1 23.0792861329 10.7737781464 1.01780333185
2059 1 24.6649777808 8.82341648983 1.58845758381
2657 1 25.9874409899 8.90291079992 3.42896811184
3022 1 25.8704253997 10.6690986439 1.09734763873
2979 1 27.2951832912 10.8346335396 3.0579807646
2985 1 27.1801794531 8.53721846172 1.26371469266
3307 1 30.103638575 10.8329861653 3.03329768702
3313 1 30.0402640353 8.5464944442 1.24645988486
3350 1 28.6838325156 10.5470079705 1.07174272555
3351 2 28.6635084196 8.98927965456 3.21516486434
3635 1 32.8134136748 10.8065433644 2.99524546854
3641 1 32.7901126442 8.56849690182 1.20227677506
3678 1 31.4095006338 10.5727423499 0.978984967115
3679 1 31.405554207 8.76976159809 3.22655873578
4007 1 34.2062985857 8.80650997336 3.20494900453
4006 1 34.1986531291 10.5920474555 0.972432350331
3963 1 35.5976895304 10.8266065694 2.98410328022
3969 1 35.6030341436 8.60206885022 1.19189138246
4334 1 37.007956134 10.6194367551 0.977683520958
4335 1 37.0036947226 8.83878077324 3.2062152178
4291 1 38.4117096089 10.8463031318 2.99547550905
4297 1 38.4145245288 8.63125681662 1.21070602979
4619 1 41.2505618604 10.8446748817 3.0241198478
4625 1 41.2373231593 8.70107382519 1.25741865585
4662 1 39.8190925462 10.6524577409 0.991994266727
4663 1 39.8138708216 8.86908562209 3.22460525899
33 1 45.5541627716 9.05617073755 3.30393455772
71 1 44.1947990994 8.62591844733 1.27101690184
4953 1 42.6853682185 10.6833713959 1.05884788321
4991 1 42.7416676419 8.89532622429 3.23614157887
129 1 45.3890096409 10.8000090762 1.10300056329
398 1 2.6885073593 11.3906846282 1.2506795492
128 2 0.711752122431 12.7129061376 0.482352880356
399 1 1.34425407111 11.0555362335 3.31054749913
391 1 2.87591948221 13.1298590993 3.34851595404
453 1 2.12457352235 14.318230296 0.864926018297
63 1 0.258788776771 13.1950709886 2.8819519381
354 1 4.31830950776 13.2816117524 1.16672274774
355 1 4.2557459939 11.2650446947 3.27674223498
682 1 7.13591272476 13.6141476667 1.57065166386
683 1 7.12566133894 11.4094391291 3.3597386119
726 1 5.75318101941 11.5283754548 1.36301052153
719 1 5.6008167222 13.419477966 3.4980123069
1010 1 9.96308251611 13.6852589063 1.55903204336
1011 1 10.0330353924 11.3779137033 3.33673961273
1054 1 8.60505716042 11.63122062 1.40565903222
1047 1 8.57285224398 13.3922737086 3.52100653947
1382 2 11.2261644735 11.753718745 1.24416826381
1375 1 11.3966155351 13.3525091074 3.53575150857
1338 1 12.7559628964 13.6200696462 1.55360027974
1339 1 12.7772264693 11.2888546307 3.33192604793
1710 2 14.3242419424 11.775867472 1.28846757502
1703 1 14.1207336695 13.3507750043 3.54659749294
1666 1 15.5823897075 13.7043838077 1.59616542428
1667 1 15.5357545184 11.3789618981 3.39979521919
1994 1 18.2274289908 13.600067769 1.58082531611
1995 1 16.9340003378 11.6413600734 1.4627212471
2366 1 18.4774529343 11.5118758302 3.47032283829
2031 1 16.8838572517 13.3985617915 3.62075912735
2688 1 21.4770335741 11.1440873927 3.20320507083
2359 2 19.5392810254 11.5530958625 1.4897355463
2694 2 22.5265854103 12.9400141561 1.94414738368
2643 1 24.3221408041 11.0198100752 3.11483830342
2642 1 26.0090596952 12.8048001305 2.78315204125
2382 1 24.5378487908 12.6245659755 0.781603664814
2866 1 24.3150138904 14.6200640162 2.68939351082
3014 1 25.8956812345 14.5915185483 0.721554732521
2381 1 22.9178368448 14.4896819747 0.39087228516
2978 1 27.3253275908 12.5755072292 0.791887587954
3306 1 30.022039028 12.588921472 0.767503667551
3343 1 28.693934894 12.8155973516 2.82009240094
3342 1 28.6195988738 14.6143593734 0.535477137684
3634 1 32.8123566026 12.5915048481 0.756333778178
3670 1 31.425503838 14.5858508196 0.5400735569
3671 1 31.4471043163 12.8290793805 2.78375046502
3999 1 34.2200012364 12.8406861848 2.76846616576
3998 1 34.2238002167 14.6145307238 0.548302460847
3962 1 35.6119026359 12.6169422206 0.752233988466
4327 1 36.9876175348 12.8135138624 2.76463642244
4326 1 37.0139209092 14.6196603032 0.536900606661
4290 1 38.4051760487 12.6365530148 0.761357312909
4618 1 41.1795046842 12.6619678486 0.724527928723
4655 1 39.838306365 12.8216468048 2.76849507685
4946 1 44.128480064 11.0250636984 3.07577596517
4938 1 42.5211833667 12.8840592132 2.68620227121
4990 1 43.9853047227 12.7653155766 0.750984279402
26 2 3.61786919416 15.0415892383 2.30317522843
390 1 1.86654579747 16.4346000703 2.24420501239
574 1 2.71210790361 18.1774770409 0.197714957622
345 1 4.31708668446 17.5998466029 2.06447711189
673 1 7.15360794186 17.6551458368 1.95782098945
718 1 5.79576375165 15.6391324342 1.79494960231
411 1 4.04172465103 16.0853201805 0.10771182348
1001 1 9.97647008403 17.6592172015 1.94841938848
1046 1 8.54476809201 15.6501826694 1.74785300515
1374 1 11.3779666288 15.65843853 1.73363582531
1329 1 12.7556653843 17.6922198339 1.94088605862
1702 1 14.1222351305 15.6559342045 1.74116188647
1657 1 15.5141242241 17.6713352254 1.94069816158
2030 1 16.9605600295 15.6959954372 1.77227114791
1985 1 18.5421638458 17.6011646818 2.10094214857
2214 1 17.0571739768 17.9377739394 0.0596827081068
2869 2 19.6119909133 15.1849170675 2.13599958567
2313 2 21.0009746928 17.8203625571 1.79757735321
2870 1 21.1791151149 16.0374975864 0.0716061384894
2678 1 22.8482310397 16.5954429648 2.38306957407
3006 1 25.7623584657 16.5539578465 2.25619565117
2641 1 24.3273334162 16.3954084346 0.306395895844
2500 2 24.2181991198 18.2245265425 1.91490717993
2970 1 27.3193792755 14.7941926135 2.60408052855
3298 1 30.0545767083 14.8153396225 2.56678644723
3297 1 30.0577118765 16.5707804541 0.288286560488
3334 1 28.6800758294 16.7604738676 2.33499472473
2969 1 27.2274134643 16.6052753358 0.283411747379
3626 1 32.8297880232 14.8475692035 2.55752091209
3625 1 32.8177055117 16.6105019803 0.333610017375
3662 1 31.4169430135 16.8417364889 2.34309478191
3990 1 34.2480200194 16.85111664 2.33162096726
3954 1 35.655209163 14.8593970442 2.54295313181
3953 1 35.6439905919 16.6205724814 0.332789926871
4318 1 37.0862173538 16.8463485036 2.29751956961
4654 1 39.7655765148 14.6472070783 0.515560241575
4282 2 38.3945169028 14.7272783835 2.62350905662
4610 1 41.12723399 14.8955316358 2.49797030259
4646 1 39.6715712472 16.8340655866 2.2543762434
4609 1 41.1272503671 16.6722155831 0.29651134821
4281 2 38.3743160072 16.6085547972 0.0995224710089
4982 1 42.5574051504 14.7023109525 0.491714654925
125 1 45.3972949453 14.79935641 0.550325804434
27 1 43.9555097986 14.885611262 2.46624588392
62 1 45.3084660378 16.9549459288 2.28567591904
4974 1 42.5590730186 16.8844014423 2.29480657512
4937 1 43.9582449573 16.6960375096 0.252874545828
17 1 0.958575729518 19.0887189279 2.32872890011
573 2 3.21563225977 19.8478745963 2.00125667239
244 1 1.82077642072 21.8283264302 2.02168967499
205 1 1.3764400472 20.3231127657 0.0951754783962
861 1 7.1433926969 19.8563820413 0.114728020708
901 1 5.79603171554 19.6442874836 2.12863666035
859 1 7.19739673814 21.6681712296 2.38601973128
531 1 4.50075537356 21.7401942573 2.31960990936
533 1 4.39653015323 19.9165372374 0.0595250473253
900 1 5.86798434411 21.8958654293 0.313795910708
1189 1 9.96699395296 19.9111552321 0.13910616305
1229 1 8.58749222992 19.6654857239 2.15610025658
1187 1 9.97695587898 21.6945432505 2.39666984865
1557 1 11.3412674951 19.7034155169 2.12282960812
1228 1 8.5723592363 21.8850423847 0.364431196947
1556 1 11.3711012683 21.9313370089 0.386109113326
1517 1 12.7743049506 19.938248606 0.146981301734
1885 1 14.1540295777 19.7432182241 2.13958766627
1515 1 12.7566984556 21.7379313748 2.40328923892
2213 1 16.6965054291 19.7321757593 2.23202552085
1845 1 15.5892437769 19.9581341804 0.161490943336
1843 1 15.5179510514 21.7886412722 2.47200557452
2173 1 18.2995675535 19.9654457104 0.398736852427
2172 2 18.7225820581 19.813531757 3.02186968281
2171 1 18.4360000136 21.8787565784 2.35614565891
2828 1 20.7169146375 20.3150604853 1.79089398434
2868 1 23.4644704395 20.278319034 1.63541600992
3196 1 25.9099024376 20.1138986849 2.34849215048
2895 2 25.2066557276 20.83865613 0.303187664179
3157 2 27.4076313409 18.5222793748 1.85358933061
3485 1 30.0135620657 18.8191256561 2.12747040589
3524 1 28.6101811392 20.7507322006 2.02131572694
3854 1 31.4037980444 18.6130528712 0.124602230596
3813 1 32.8239581976 18.8547350318 2.13154518396
3852 1 31.4108129563 20.8672546766 1.93862919223
4180 1 34.2272006802 20.8614500559 1.9070883263
4182 1 34.2170620158 18.6201985624 0.129354039845
4510 1 37.0054100842 18.6319682841 0.118871534007
4141 1 35.6594627692 18.8452339991 2.1216415372
4508 1 36.9851308776 20.907506993 1.90404712551
4797 1 41.0715162282 18.8068049925 2.03800851839
4469 2 38.4028345168 18.9841061057 2.1831728743
4836 1 39.8269731976 20.9044119467 1.86940862458
4838 1 39.7237491672 18.6491025719 0.0757493103185
245 1 45.188192719 20.9838908116 2.04182723535
5125 1 43.9514784986 18.9032936263 2.14018792204
5164 1 42.4778842413 20.8592337403 1.75967409039
5166 1 42.5745155765 18.678688252 0.119289155393
246 1 45.4783373755 18.5961484646 0.19091683463
572 1 3.10177671408 22.0026901411 0.169937137556
569 1 3.13141456684 23.7352478802 2.61649900313
627 1 1.77518081885 24.0029305694 0.59982872389
5122 1 0.235708867352 23.3762160319 2.7405751601
198 1 1.45024385766 25.4435084501 3.03426160792
530 1 4.52576844897 23.9014838536 0.571470716062
858 1 7.2202512034 23.9236562091 0.603972947942
897 1 5.84785374582 23.7145337284 2.64028213864
1186 1 9.97078250079 23.9331032579 0.604750984383
1225 1 8.59253847645 23.6997556759 2.63064695142
1553 1 11.3390573984 23.7300728756 2.5888467606
1884 1 14.1851965352 21.9600884891 0.425004408798
1514 1 12.794559983 23.958269638 0.640036535944
1881 1 14.1618014772 23.7513231813 2.67521696784
2212 1 16.961542987 22.0156795975 0.458615043674
1842 1 15.5853111701 23.9838870315 0.700357294153
2170 1 18.4728708643 24.0329559222 0.743736471195
2209 1 16.9898201745 23.7282971498 2.69467539832
2540 2 19.5854443535 21.976372765 0.248912913909
2494 2 22.4503438925 22.2238838152 1.82719564577
2495 2 19.5841042688 23.6667643519 3.12439957926
2537 2 21.1764443994 24.6764779079 0.667277710827
2531 1 21.3804847118 25.4215670883 3.04398956111
2923 1 23.6586926929 24.3024474729 1.04113202125
2826 1 24.8845598817 22.4174444551 2.06391793058
3192 1 25.9998927344 24.7213373761 1.81132382437
2859 1 24.055330877 25.3964791129 3.1867885672
3154 2 27.3864107596 22.6336788912 1.88820312648
3478 1 30.024776609 25.1193410929 3.48163048994
3482 1 30.0053710286 22.8579649852 1.74814106457
3520 1 28.538860972 24.8639935304 1.46504704392
3806 1 32.8184387936 25.0876093795 3.48047313763
3810 1 32.83279883 22.8714119503 1.68251428335
3848 1 31.4045100487 24.8591457442 1.47156950028
4176 2 34.2095775508 24.9747102744 1.54526230254
4134 1 35.6495464432 25.0943974936 3.47506737233
4138 1 35.5838143884 22.8847366635 1.66816116763
4504 1 36.9884865424 24.8818962467 1.44860406411
4462 1 38.4379388064 25.1074285243 3.42568935438
4466 1 38.3945179522 22.8876760718 1.65353814066
4790 1 41.2108687663 25.1283839883 3.36105616639
4794 1 41.191014312 22.9173513134 1.59250066937
4832 1 39.8076976998 24.9080575683 1.39690624375
4833 1 39.8434435931 23.1026529603 3.62405025565
5190 1 45.6577948288 22.4233014482 0.0738350665365
242 1 45.3564424438 25.0388845792 1.07452728322
5160 1 42.5681462563 24.9394552448 1.35261120269
5161 2 43.8594951031 23.032533633 1.4866834619
5118 1 44.1214479425 25.1102238926 3.2443904097
5158 1 42.6471945193 23.1228863387 3.58127591799
568 1 3.31135388824 25.8645506457 0.884773185376
563 1 2.8552700497 27.6099035793 2.89885147646
197 2 1.2343753238 26.6759696771 1.15955659067
526 1 4.44499290805 25.7237050714 2.94973247688
525 1 4.65904582153 28.0037616556 1.27106388764
853 1 7.18245171427 27.976242087 1.0916690267
854 1 7.21100160964 25.714460292 2.87943179762
891 1 5.8518079682 27.6971799942 3.20859633812
896 1 5.82953177162 25.9395045499 0.840795371799
1181 1 9.98524896034 27.9755171655 1.08514909896
1182 1 9.95593010555 25.7480806013 2.84711281353
1219 1 8.57721823714 27.7450030423 3.1075156476
1224 1 8.59195923475 25.9570159645 0.855259319791
1552 1 11.3845852936 25.9604859077 0.851039432151
1547 1 11.3737475551 27.7531227746 3.08511920095
1509 1 12.7868252298 27.9905267155 1.07222054576
1510 1 12.7667840331 25.7481167117 2.85717687988
1875 1 14.1758358753 27.7529907589 3.06412048995
1880 1 14.1891716014 25.983924222 0.871232293122
2166 1 18.3548974081 25.7138275248 2.93358656265
1837 1 15.6053342879 28.011511721 1.07879299828
1838 1 15.5797496911 25.7462141887 2.85830450206
2165 1 18.2934253532 28.0621784249 1.14256548249
2203 1 16.9787739664 27.7556361844 3.08562105579
2208 1 17.013468082 25.977138184 0.888286180759
2536 1 19.6363717695 26.2185951305 0.902841531424
2589 1 19.932176795 27.4613704085 3.14058898665
2487 1 22.7601806193 27.4568247446 3.1606756414
2814 1 20.9381928766 28.331527694 1.09026038308
2551 1 22.4395959696 26.4587770335 0.967389467618
3186 1 25.8696587566 28.9603139652 1.07634914884
3251 1 24.6832082028 26.9006202726 1.32147624749
2488 1 24.4997101527 29.1349103967 3.19049855749
3187 1 25.8182498419 27.1530551955 3.37007269907
2851 1 23.1641080289 29.0761807979 1.12834431544
3149 1 27.2264666432 26.9044803759 1.29492178592
3471 1 30.0639998934 29.0898742126 3.00733278934
3477 1 29.9758172207 26.8629388598 1.23140871912
3514 1 28.6078658141 28.9172660208 1.00819513958
3515 1 28.6415519671 27.177384686 3.28683731064
3143 1 27.2062161132 29.1568704114 3.11888042485
3799 1 32.8283840533 29.0912622843 2.99221317245
3805 1 32.7870234678 26.8815690733 1.22469519657
3842 1 31.4017552327 28.8670814074 0.970828722746
3843 1 31.4229912259 27.0889228027 3.23511142633
4171 1 34.2285021087 27.0926767226 3.22975094065
4170 1 34.2192211111 28.8719014428 0.992278631484
4127 1 35.6370308873 29.0993722446 2.99542529582
4133 1 35.6251578534 26.8990850519 1.23332375228
4498 1 37.0323698907 28.8950715616 0.997804087695
4499 1 37.0414535445 27.1089460599 3.2219904389
4455 1 38.4592676009 29.1284243718 3.00952858231
4461 1 38.4217369114 26.902153767 1.21757357083
4789 1 41.2288647883 26.9377356658 1.20286647384
4826 1 39.8474511886 28.9264114973 0.993075231029
4827 1 39.8495997504 27.1434148284 3.2101248302
4783 1 41.2940355869 29.1624001473 3.0453090334
241 1 45.5567520647 27.3233303566 3.03542967162
240 1 43.9016977827 26.9402297454 1.17240571146
5154 1 42.5626427351 28.9737043402 1.00832555349
5155 1 42.67015696 27.1225737006 3.23388057641
289 2 44.9790640262 28.9624004797 0.90977680661
235 1 44.010807984 29.2287581449 3.07292523019
293 1 2.93816646869 30.052708254 1.57421227921
227 2 1.46626993483 32.1717506781 1.82291700342
555 1 2.95635137379 31.5812029931 3.56977976026
191 2 1.56856058166 29.4273760888 3.4481004125
518 2 4.51251701764 32.0512010135 1.56300970747
519 1 4.3330868549 29.5502845765 3.45128235006
846 1 7.19068549704 31.9970633951 1.57310684034
847 1 7.20288545946 29.7337877518 3.40145336226
890 1 5.84010073605 30.0078277542 1.47355745728
883 1 5.74978282607 31.65904612 3.6017968144
1174 1 9.97282619939 31.9917858944 1.55278638617
1175 1 9.97783645984 29.7587339731 3.33628322417
1218 1 8.57959984632 29.9802631392 1.34454596764
1211 1 8.57120512117 31.7528871504 3.58317986533
1539 1 11.37149305 31.7785837265 3.55232035049
1546 1 11.3817582528 29.9924561075 1.31045467826
1502 1 12.7845077316 32.008399322 1.54256852109
1503 1 12.7769014474 29.771954263 3.29880112744
1874 1 14.1983460828 30.016487519 1.29418663543
1867 1 14.1823643162 31.7911200929 3.53467592046
1830 1 15.6027393367 32.0572090945 1.54979356206
1831 1 15.5790908521 29.7802639319 3.28931147334
2158 1 18.3622373263 32.1911678886 1.59602107133
2202 1 16.9720594211 30.0893626157 1.32864052897
2159 1 18.4490646162 29.7293605496 3.28953286097
2195 1 17.0361062534 31.7729298923 3.55224487855
2530 2 19.5511291035 30.1354778689 1.16458908733
2486 1 21.6137832793 31.1124815554 1.26910250728
2843 1 21.308303039 29.4602181409 3.20997114921
2523 1 20.0410796235 31.5410206889 3.22129034571
2815 1 25.8054150524 31.199600766 3.07246652181
2806 1 23.0906687013 30.9870866895 3.01515487088
3179 1 24.5709873346 31.0051724531 1.01607645885
2850 1 23.0245926123 32.8737332799 0.563907714034
3142 1 27.2163088754 30.9194988249 0.814008550774
3470 1 30.0295740048 30.8866202553 0.729385389282
3507 1 28.7088136162 31.0981191698 2.74234908593
3506 1 28.6392119367 32.8956189302 0.557332533847
3798 1 32.8388610005 30.8726530868 0.767080240372
3835 1 31.4386812412 31.0977949161 2.77270957069
4163 1 34.241922439 31.1011082804 2.76237563263
3834 1 31.4650591435 32.8786333049 0.528993928932
4162 1 34.250455001 32.8890315561 0.531885143197
4126 1 35.6351187925 30.885555775 0.751570175164
4491 1 37.0372045111 31.1133253362 2.7658374098
4454 1 38.4236945493 30.9175863048 0.773566728812
4782 1 41.2458455019 30.9441967196 0.77579232945
4819 1 39.8610398848 31.1333390187 2.77064962204
234 1 45.6054049443 31.40534169 3.28157254708
5111 1 44.0191253808 31.0273841643 0.804216958592
5147 1 42.7104606831 31.2031622416 2.88551212831
554 1 2.760269051 34.0305992808 2.14119746593
247 2 0.585418486642 35.3523586528 1.36780249492
509 1 4.38008341275 35.8551563453 1.90261080743
837 1 7.12589151297 35.9538899263 1.98953971371
882 1 5.74910530759 33.9627129167 1.77735147499
1165 1 9.96306923866 35.9879729497 2.02050535488
1210 1 8.55988673615 33.9879151385 1.78559503106
1538 1 11.3733258506 34.0013813095 1.7859967184
1394 1 11.3842137391 36.2154087329 0.0111743320027
1493 1 12.7791950396 36.0164868177 2.02278595011
1866 1 14.1780093203 34.0331096899 1.78298308352
1722 1 14.1728412953 36.2540167481 0.0166063200803
1821 1 15.5728931002 36.0611106824 2.02722119442
2149 1 18.4135354694 36.1062225674 1.91310862646
2194 1 16.9503793624 34.1105484617 1.77280785024
2703 1 22.131532647 33.0645221669 3.31488547154
2522 2 20.6727413305 33.3746665437 1.41603348362
2798 1 22.7382330228 34.8334709591 1.85924393945
2836 1 24.3873801425 33.0721421022 2.46401157536
3178 1 25.9095674176 32.9691301882 0.576666173905
3170 1 25.7704460576 35.0506277538 2.27661954866
2842 1 24.3164578994 34.8435062389 0.12657792811
3462 1 30.0962720783 33.1078822652 2.53737366077
3134 1 27.2907173031 33.0930275881 2.62827504569
3133 1 27.249417531 34.9111169997 0.313164838452
3461 1 30.0780321673 34.8765267537 0.318283677267
3498 1 28.680828437 35.0568464354 2.33181018396
3790 1 32.8605606036 33.1074335259 2.54604312973
3789 1 32.8685489419 34.8960815726 0.305723328349
3826 1 31.49430576 35.1190311949 2.31748651226
4154 1 34.2626860276 35.1273819791 2.3245106436
4490 1 37.0217250361 32.9094787471 0.515720673037
4118 1 35.647856561 33.1188704482 2.53875495739
4117 1 35.6300614614 34.9130083438 0.290533632951
4482 1 37.038921121 35.1354981274 2.2985633886
4818 1 39.8421336401 32.9292537213 0.483324119427
4774 1 41.2399161761 33.1358710995 2.48769380031
4446 1 38.4374865399 33.1215768266 2.51051163801
4810 1 39.8177240016 35.1294326935 2.26763560324
4445 1 38.4180644157 34.9243582844 0.269701049684
4773 1 41.2343990933 34.9504307347 0.243105888075
5146 1 42.6074068979 32.9419861738 0.425143799306
5110 2 43.9357645716 33.1105190429 2.26118685324
5138 1 42.5536929036 35.1603170756 2.26874278856
5101 1 44.0399277903 34.9293741052 0.383252241951
190 1 45.6047259395 32.9729129914 0.200059379307
40 2 3.19284840504 3.13787712627 4.55566767875
540 1 3.14928069116 0.978650887431 6.35867170666
174 1 0.674971069707 1.05018725677 6.29150727704
402 1 1.90745487165 3.11058453908 6.39562001791
406 1 1.94336884616 1.16343034923 4.29324299514
78 1 0.6494167871 3.19369760733 4.21247013522
407 1 4.45885957056 3.00464556772 6.56385799058
368 1 4.49600635581 1.14392423445 4.29442321724
692 1 7.14084932659 2.99881630204 6.4939629033
696 1 7.12173812793 1.1877064614 4.26463290787
735 1 5.77677655532 0.954652864535 6.33673540558
734 1 5.75254432467 3.22273114778 4.46574332362
1020 1 9.97184901369 2.99838206794 6.48596822987
1024 1 9.95762785195 1.21072985039 4.26531006348
1063 1 8.54556629758 0.987478929195 6.27298723079
1062 1 8.55358386423 3.20089189772 4.48460122947
1390 1 11.367931041 3.22016362501 4.47927743791
1391 1 11.364821475 1.00037895045 6.25720843767
1348 2 12.7786674664 3.01307848344 6.46508725208
1352 1 12.7831498444 1.23806540247 4.26259868339
1719 1 14.2028776621 1.03618514358 6.24573656888
1718 1 14.2123957651 3.24244050909 4.49284403756
1676 1 15.6245541214 3.05152271024 6.50278851516
1680 1 15.6277188733 1.27106778415 4.25244635838
2008 1 18.3078746006 1.3376432946 4.09872012835
2047 1 17.0304086204 1.06312456302 6.27146915503
2369 1 18.4558326135 3.09348584848 6.53096459485
2046 1 17.0556533451 3.29376904731 4.51848326721
2333 2 21.5843972587 1.43819614844 5.54517677458
2698 1 19.5019376432 0.9473254792 6.05803653771
2697 1 20.0172706612 3.16880551341 4.59563525987
2325 1 21.3708896094 3.20139969843 6.90646998236
2662 1 22.886123675 3.28013944333 5.018331937
2701 1 24.7650936462 2.83924674588 3.77876219174
3033 1 25.8915485106 0.672770182531 3.99709387706
2704 2 24.75487575 1.50848152223 5.74226750553
3030 1 25.9249155636 3.32634235855 5.84423623055
2374 1 23.0597737281 1.03701170428 7.19603163577
2991 1 27.3489362352 2.75118144796 3.88099421721
2992 1 27.2290806942 1.00964894146 6.05752935343
3319 1 30.0862828976 2.73643193125 3.88601224398
3320 1 30.0881139314 1.04548668495 6.10474404628
3358 1 28.6346361217 3.03456016742 5.89027147623
3361 1 28.6603590476 0.731194791097 4.10692305472
3647 1 32.8604935112 2.80676679226 3.88692364716
3648 1 32.898404228 1.01546618759 6.13348877876
3686 1 31.4849335503 3.01649247609 5.89850729788
3689 1 31.4913658139 0.784251308308 4.10783126029
4017 1 34.294455912 0.807402068723 4.1326115991
4014 1 34.3121517374 3.01253383922 5.9113890324
3975 1 35.6794559821 2.82174907915 3.90095934638
3976 1 35.7608859474 1.03320914747 6.15254350186
4342 1 37.1237144065 3.04464355102 5.9129152708
4345 1 37.0398505337 0.810699970498 4.06548876991
4303 1 38.4339367048 2.83659354687 3.85432954658
4631 1 41.1525402199 2.88492176108 3.8689093566
4304 2 38.4467159987 0.990996733069 5.90893639222
4632 1 41.0672806683 1.05219375201 6.06223216538
4670 1 39.740433171 3.07827056711 5.8953147628
4673 1 39.8296792802 0.825465936904 4.02160154769
218 1 45.2002792575 1.11586202713 4.18100796422
79 1 45.0564887234 3.047576058 6.12010636406
4959 1 43.858555154 3.00952909607 3.8839020929
4998 1 42.4705635304 3.0958144896 5.92012007424
5001 1 42.4940594924 0.922562584152 4.02937807062
37 1 43.7594226031 1.05265135719 6.09502378974
401 2 0.682003829166 5.09666422165 5.7390307319
30 2 3.32887623286 5.14639452804 7.01973745339
400 1 2.64988742532 6.96572620418 5.13806677723
363 1 4.32562387399 5.21823923383 4.67525283255
691 1 7.15248994177 5.20711710511 4.69047689019
729 1 5.79919709854 5.03533625944 6.6838679589
685 1 7.16126291371 7.01428795036 6.89931681364
357 1 4.33476902537 7.0927181716 6.94183643453
728 1 5.71578569086 7.18526091771 4.92216923669
1019 1 9.97965231198 5.2162485997 4.70556079381
1057 1 8.56526200006 5.00215612084 6.70592961645
1013 1 10.0033375832 6.99652891415 6.908459506
1385 1 11.3830691966 5.0061539957 6.70133911908
1056 1 8.56176191549 7.20471278974 4.93359352304
1384 1 11.4062953431 7.2414764517 4.91063290697
1347 1 12.7898710752 5.23119537906 4.70860763907
1713 1 14.178572386 5.02965637714 6.70366560825
1341 1 12.7769540004 7.02699415853 6.90316955594
1712 1 14.187395732 7.25591985768 4.93226873655