ITEM: TIMESTEP
32000
ITEM: NUMBER OF ATOMS
5248
ITEM: BOX BOUNDS pp pp pp
0.0 45.68
0.0 36.5618393957
0.0 36.5618393957
ITEM: ATOMS id type x y z
409 2 3.3009519022 0.900161650669 1.98658581257
697 1 7.08016822547 1.66909927734 0.106444735134
737 1 5.7511915344 1.38095845324 2.07678248664
695 1 7.06139665184 3.44095106234 2.33526974606
367 1 4.3051449084 3.32980828937 2.2858691624
369 1 4.22120890491 1.76550381396 0.068134080908
1025 2 9.73687529829 1.7323128231 0.221524011113
1065 1 8.46491687908 1.41502927341 2.14562276483
1023 1 9.8976524805 3.43587656 2.34755720119
1393 1 11.2906675216 1.44151416109 2.09558001707
1392 1 11.3011587724 3.62861512712 0.333517293123
1353 2 12.8503517681 1.75630025296 0.215694242918
1721 1 14.1377417215 1.44761635597 2.12912297388
1351 1 12.7036539263 3.43888771477 2.32725546941
1681 1 15.5453528983 1.65748623974 0.117920941177
2049 1 16.9765875035 1.43190102713 2.1179001467
1679 1 15.573186255 3.44472982668 2.30860082934
2007 1 18.3481337918 3.5004044262 2.21291601053
2009 1 18.4529559015 1.63856748228 0.166600216522
2048 1 16.9635078348 3.63368725516 0.265161681673
2377 1 19.8694354849 1.60026405004 2.15273863939
2337 1 21.3919646096 1.92876436717 0.159962187178
2477 2 21.7872552403 0.480968067677 2.00032603645
2336 1 22.9665193331 2.41992112761 2.13410660835
2706 1 22.8985814383 0.0254263833814 0.109662184841
3032 1 25.9696342373 2.38325817878 1.97798954305
2665 1 24.4123654168 0.465629425931 2.22091967907
3034 1 25.8343914678 0.26885142405 0.217535143251
2731 1 24.3696378077 2.154561223 0.0490075928069
3360 2 28.6578546708 2.58997119061 1.86727840307
3321 1 30.0313397835 0.531998470686 2.21556592995
2993 1 27.3151709607 0.483009642028 2.20271392342
3362 1 28.6655557081 0.280964573159 0.193208567943
3649 1 32.8553997727 0.551302281382 2.22863423025
3688 1 31.4186846583 2.5274263159 2.02341513436
3690 1 31.4509091731 0.295644447108 0.218626837223
3715 1 32.8597743117 2.31609364801 0.012729780609
4018 1 34.2675444205 0.317482796969 0.203099296324
4016 1 34.2836785723 2.55095906077 2.02003136219
3977 1 35.6914344354 0.556577396315 2.20203180608
4344 1 37.0865663596 2.55954658597 1.98915708058
4346 1 37.0881681458 0.331724866181 0.166214629028
4305 1 38.4819297327 0.566681215168 2.17103493963
4672 1 39.8405057806 2.58620768044 1.94692693202
4633 1 41.2322969314 0.588151662254 2.06846363146
4674 1 39.8770232422 0.337782490801 0.100637188991
81 1 45.5338901557 2.53207061325 1.79641675206
5000 1 42.6171197548 2.67768021101 1.89599841065
4961 1 43.9427311301 0.63694179893 1.93985713347
82 1 45.6580602579 0.182262675439 0.129312862712
5002 1 42.6498651428 0.258866449032 0.0406565550391
39 2 2.00440281862 3.66795230565 2.49523548588
408 1 2.76033414493 4.02618697526 0.188948477233
36 1 3.14187374527 5.58018910256 2.61559239473
77 1 0.748332266799 5.38519748164 1.80966998061
736 1 5.66341752842 3.65904376338 0.317473139587
366 2 4.42746899011 5.73885827119 0.444123242429
694 1 7.10218205375 5.6663783222 0.528042902538
733 1 5.67308704373 5.43812865248 2.53709033237
1064 1 8.46917318421 3.67857510287 0.339011321657
1022 1 9.92909375972 5.63748053426 0.544350383061
1061 1 8.51342956665 5.4276282194 2.56325132957
1389 1 11.3071139705 5.43274079508 2.57110357317
1720 1 14.1549099896 3.68324625362 0.322585937239
1350 1 12.7144584203 5.63563281266 0.542278244743
1717 1 14.127500423 5.42058405406 2.53555503866
1678 1 15.5644376001 5.65050100126 0.518136946332
2006 1 18.3515616376 5.63880497202 0.484287841501
2045 1 16.9696676287 5.45993870386 2.52274785368
2335 1 21.1943535866 4.00094208691 2.20060771272
2376 1 19.8026040667 3.68134923726 0.241916907557
2373 1 19.7092110572 5.62544395613 2.55480190005
2759 1 21.9095393079 6.57190611173 3.52903355113
2767 1 22.807488221 3.96081357414 0.127451943989
2387 2 21.0113650656 5.65161091917 0.243983469556
2722 2 23.4120420529 7.03999971936 1.7308749715
2663 2 24.7043353521 4.20326282963 1.71212401196
3028 1 25.8623475228 6.55576889889 1.67857178118
3029 1 23.2730087936 4.77552616768 3.39689150456
2986 1 27.2672071596 4.53016262692 1.77236751122
3318 1 30.0636255116 4.54114686702 1.80108568331
3356 1 28.6762517304 6.55409902653 1.64694886229
3023 1 27.2077263458 6.83294572011 3.58341847346
3314 1 30.0491353616 6.78983099706 3.61088643342
3646 1 32.8517322577 4.5304381036 1.8023382202
3684 1 31.4477721911 6.54126560575 1.58658877824
3642 1 32.8512377241 6.74923411932 3.58995480235
4012 1 34.2643962122 6.5361551722 1.58680308523
3970 1 35.6929396705 6.74467283783 3.59140862908
3974 1 35.7098898639 4.5498934748 1.81997702894
4340 1 37.0387633711 6.56132966064 1.58711786468
4302 2 38.4414779115 4.55222971515 1.57693859825
4630 1 41.1674469171 4.61084073459 1.80556340987
4668 1 39.8093337704 6.60196512528 1.59200334129
4626 1 41.124636812 6.85010157444 3.6084147561
4298 2 38.4171044065 7.00658498095 3.56369349983
4958 1 44.110143695 4.72251647346 2.18550676926
4996 1 42.5738748357 6.62956864177 1.66924355487
4954 2 44.7628674139 7.20027935343 2.30702339165
70 1 1.5351265762 7.46639274061 2.84783293395
404 1 2.84394794902 7.50104026042 0.744505666591
38 1 1.65539180323 9.62755462751 0.968510202723
392 1 2.89938042661 9.47535915582 3.00058559373
135 1 0.384425713717 7.69049378323 0.511321468049
33 1 0.0518702159996 9.32936712808 2.98018793922
362 1 4.37036003749 7.55858255937 2.73447858636
361 1 4.30435180397 9.64457400605 0.937779795684
689 1 7.14632832143 9.68075935747 0.897378908618
690 1 7.12386857593 7.43948186573 2.72121065599
727 1 5.77388809129 9.48779362824 2.93668933303
732 1 5.73698350969 7.70252895448 0.702643632356
1017 1 9.94411569826 9.63838701941 0.913302066943
1018 1 9.90730392777 7.4264132058 2.72081396266
1055 1 8.54755949841 9.44181790437 2.91452043003
1060 1 8.53124132012 7.6557771265 0.716257953963
1388 1 11.3443621333 7.64971972889 0.739528949749
1383 1 11.3487578046 9.42170239044 2.92017953491
1345 1 12.7983837083 9.63240066866 0.942840587503
1346 1 12.7660750855 7.42962814889 2.72124189734
1711 1 14.1974538446 9.42327309914 2.954156234
1716 1 14.16347582 7.64240375337 0.733024264268
2002 1 18.2972355678 7.48753576054 2.79838754536
1673 1 15.5677030028 9.64073697377 0.933959825132
1674 1 15.5340928749 7.398858054 2.74541021947
2039 2 16.8960943467 9.29886706601 3.00780020818
2044 1 16.9767323267 7.65472296089 0.741451726118
2001 1 18.3474672697 9.66155221435 1.01925402595
2334 1 19.6688502113 7.6249019018 0.625600688238
2367 2 20.4939034182 8.0196821446 2.72149661878
2329 1 21.0758316274 9.56298538133 1.03107318287
2323 1 22.8966213389 9.04153853376 2.83329505911
2059 1 24.4309203117 8.85336608887 0.947655022381
2657 1 25.8138407644 8.94155507925 3.35550445234
3022 1 25.8738720822 10.7975803817 1.24732592097
2643 1 24.3903930509 10.8542587243 3.09560711808
2979 1 27.2215533716 10.8956739557 3.23642189105
2985 1 27.1904781045 8.63784408981 1.38571973891
3307 1 30.087783265 10.8088427479 3.21934217273
3313 1 30.0466111675 8.55990253184 1.39670359217
3350 1 28.7094263433 10.6164786253 1.28703528065
3351 1 28.6124533577 8.83164916111 3.38938791392
3635 1 32.8545199018 10.7947783101 3.16593750215
3641 1 32.850957114 8.55224486426 1.36626106814
3678 1 31.4473577996 10.5673315466 1.16513925202
3679 1 31.4603792683 8.78091202642 3.38528349525
4006 1 34.2347427113 10.5697468836 1.1416096742
4007 1 34.250773606 8.76282003279 3.3754725725
3963 1 35.6070368791 10.8138507781 3.15323694866
3969 1 35.6337993093 8.55880115566 1.35338577844
4334 1 37.0105623068 10.5900819996 1.15678251934
4335 1 36.9787152544 8.83240399096 3.37700176725
4291 1 38.3967311074 10.8335077118 3.16150185348
4297 1 38.392482793 8.5894523897 1.40207056911
4619 1 41.2477747167 10.7806975333 3.16327702317
4625 1 41.2335767434 8.63473616526 1.44889558063
4662 1 39.7907798195 10.607827754 1.17434675607
4663 1 39.8292297029 8.86523988459 3.38035553167
71 1 44.2319038304 9.03237242905 1.00763561548
4953 1 42.5971747616 10.6682633805 1.16661991884
4991 1 42.8545645302 8.73869600082 3.29638842149
398 1 2.97043203135 11.7046613741 1.16415211286
399 1 1.40924222795 11.4336200876 3.08163479212
391 2 3.13306228306 13.3445886388 3.37854625875
453 1 1.57270821058 13.5821216595 1.26832641425
354 1 4.4107652728 13.7178230175 1.31207686704
355 1 4.37872344162 11.4359085588 3.13574145754
682 1 7.21399895416 13.6717247824 1.31602794287
683 1 7.19876684959 11.4682218288 3.11531971488
726 1 5.76064500532 11.6803034446 1.11650863192
719 1 5.8191384917 13.4547140054 3.32312048606
1010 1 10.0450017904 13.6435946965 1.3143616195
1011 1 9.97139586459 11.431132894 3.12647517407
1054 1 8.59596853061 11.6706097764 1.10055497273
1047 1 8.64041259642 13.4558573981 3.30913318936
1382 2 11.390880003 11.5451399078 1.20591478109
1375 1 11.4177472982 13.4172080795 3.32207648722
1338 1 12.7976755265 13.6401465305 1.31850268524
1339 1 12.8072057539 11.4068445809 3.1403682462
1710 1 14.1960702623 11.6474261089 1.12293677313
1703 1 14.1745257901 13.396623517 3.32145639972
2366 1 18.38318196 11.2993788698 3.10230843475
1666 1 15.5955980136 13.6589385208 1.31362386722
1667 1 15.6156498494 11.3940687423 3.09991296998
1994 1 18.4039847117 13.5124109378 1.39375615535
1995 2 16.9578318752 11.6552154808 0.890794009911
2031 2 16.7474829828 13.4480388658 3.39022421236
2688 1 21.709637631 11.2722652833 3.25579430067
2359 1 19.8663494093 11.5636906391 1.25356475982
2678 1 21.3531275717 13.461163167 0.982919664575
2679 1 20.2384537126 13.276164665 2.93551588572
2421 1 22.8947898777 11.0277247696 1.19285538661
2694 2 24.7212453197 12.8258846623 1.17391061507
2642 1 25.746734771 12.9331301206 3.20572413281
2978 1 27.3024251003 12.6919615493 1.00053575011
3306 1 30.1456354554 12.6236784946 0.981010794679
3343 1 28.678846707 12.8062647914 2.99421518227
3342 1 28.7851363382 14.6116578074 0.65441027454
3634 1 32.8402292816 12.5859245473 0.934178374073
3671 1 31.4812952143 12.8216398935 2.97602962222
3999 1 34.238633608 12.8249917007 2.93156545802
3998 1 34.2448403855 14.5913730543 0.675636514808
3670 1 31.527178067 14.6089907209 0.670943080026
3962 1 35.6338074988 12.5944896353 0.935159998759
4327 1 36.9951764839 12.8128574465 2.93570119299
4326 1 36.9928412525 14.6111698363 0.675108701602
4290 1 38.3974510331 12.6130489399 0.933937305494
4618 1 41.1536552722 12.630235984 0.926488581361
4655 1 39.8201419825 12.7998173996 2.95485262775
4946 1 44.0730331748 10.984698369 3.1010511929
129 1 45.6474293074 11.2905299805 1.09127931993
63 1 45.3342070206 13.1162541801 2.91386303223
4938 1 42.480745566 12.8532033699 2.96439806182
4990 1 43.7853173202 12.7381060045 0.972036938373
390 1 1.44507686476 15.156455736 3.12024831016
83 1 1.09837233814 16.4503068873 0.545017523878
26 2 3.18701070026 15.8239233143 1.46611877499
382 1 3.03118323138 17.3761252659 3.50820304632
574 1 2.66868095011 18.1351417011 0.1669350046
345 1 4.60159638682 17.7451397095 1.7397924946
673 1 7.31038771725 17.6936611072 1.8275350796
718 1 5.88114661691 15.6987558918 1.52592731429
674 1 7.26190197721 15.4626253931 3.53834563946
346 1 4.5024919126 15.4669646831 3.46593070163
1001 1 10.0381207782 17.6874079646 1.80127893754
1046 1 8.66392130813 15.6575951598 1.56793784209
1002 1 10.06763919 15.4392472735 3.55833099612
1374 1 11.4252700092 15.6573497046 1.55146956981
1329 1 12.8271865637 17.6726851248 1.78871766723
1702 1 14.2202130271 15.6477168882 1.57127792946
1330 1 12.8091609664 15.4227840038 3.55515734915
1657 1 15.6633995593 17.6132164911 1.78177534533
2030 1 17.1520934581 15.5147944636 1.84395088938
1985 1 18.2373911175 17.7113614869 1.50572054952
1658 1 15.5641652881 15.4178102573 3.62361390022
2869 1 19.6371507419 15.5415278152 1.50877563923
2824 1 21.5674269711 15.3335177576 2.92180979325
2351 1 21.023767435 17.8448522771 1.70810125138
2870 1 21.4694983652 16.1370951811 0.0982614411788
2314 1 19.3953449524 17.0645146659 3.36032025272
2866 1 23.3037358182 14.715706608 1.08454132097
2313 2 23.0149684417 16.9855591919 1.94542729483
3014 1 26.0055135348 14.7353178602 0.86369918074
3006 2 26.1463248986 16.9019975133 2.35694246287
2641 1 24.5406859166 16.6476925876 0.376769233841
2970 1 27.5706611006 14.8391983885 2.65408892733
3298 1 30.1049012658 14.8351588635 2.73173867371
3297 1 30.1426369451 16.6236195897 0.459899094745
3334 1 28.7740542082 16.897058487 2.49414880742
2969 1 27.4116257481 16.654159486 0.435869381753
3626 1 32.8688947221 14.8310322201 2.71277798529
3625 1 32.8996118369 16.6082701059 0.452375594562
3662 1 31.4990230771 16.8402322446 2.48506493268
3990 1 34.2728492074 16.835045203 2.48687849317
3954 1 35.6535489866 14.8376105783 2.70483597022
3953 1 35.6469691921 16.6179838401 0.480475578406
4318 1 37.0600575832 16.8389655212 2.50146341095
4654 1 39.7830798566 14.6420037509 0.694169275295
4282 2 38.4020736174 14.7349874205 2.63870417721
4610 1 41.1107711882 14.869996759 2.75062506249
4646 1 39.7342038992 16.875494562 2.51751882796
4609 1 41.0987335502 16.6994891121 0.49106786642
4281 1 38.3921046692 16.644530663 0.484501190252
4982 1 42.4410406047 14.6989323895 0.688697903053
125 1 45.1812634427 14.6911246564 0.892392975051
27 1 43.7026360364 14.903534059 2.71031719676
62 1 45.2468790245 16.7519171961 2.43287340932
4974 1 42.4582889669 16.9004379778 2.50382085308
4937 1 43.8548047451 16.6810396361 0.46318315626
17 1 1.01162111556 18.7197775308 2.23409079334
573 1 3.20596757949 19.6595072501 2.09751015042
244 1 1.81770868846 21.5770450748 2.33512142351
572 1 3.07765629177 21.7844205566 0.282059128076
205 2 1.17228906192 20.2869856803 0.16957247422
861 1 7.24250517377 19.9342497071 0.0765873178614
901 2 5.8889029214 19.77051215 2.29225749846
859 1 7.28113398355 21.7133414011 2.29892977275
531 1 4.4927920332 21.6709362975 2.32588576938
900 1 5.8182412536 21.8811392173 0.267994665257
533 1 4.58036146652 19.8156541803 0.0937882980915
1189 1 9.99335501913 19.9261277451 0.043754265236
1229 1 8.6420482059 19.7003944082 2.0992573642
1187 1 10.0324105403 21.7025403827 2.30384286748
1228 1 8.60194852951 21.9219922671 0.268689929374
1556 1 11.4110786615 21.9272547586 0.285326103463
1557 1 11.4316445997 19.6944943342 2.05477745137
1517 1 12.8166642711 19.9199815144 0.0387128736201
1885 1 14.2440816643 19.6688601362 2.03061995147
1515 1 12.8422055423 21.7007228569 2.29618438225
2213 1 16.9779628128 19.6687638715 2.00673029094
1845 1 15.5980507479 19.9628655145 0.0132405727848
1843 1 15.635078779 21.7133031981 2.27534434083
2171 1 18.2792492327 21.7121109768 2.16337369205
2828 1 19.6538167093 19.7730203857 1.93133206404
2541 1 21.4259412374 20.2901857165 0.178210365279
2307 2 20.7689396602 18.8550923451 3.64737701479
2829 1 22.9198542495 18.5017560002 0.124215265402
2868 1 23.2389262556 20.746559915 1.92879624366
3196 1 25.8036696761 20.6999556368 2.05051105531
3198 1 25.8997937014 18.6275786764 0.296942215028
3157 1 27.3766628806 18.8752708744 2.26733347571
3485 1 30.1672540814 18.8879329782 2.25544669517
3524 1 28.7489973217 20.8633282821 2.05816562789
3526 1 28.787293256 18.6421656893 0.25233051934
3223 1 27.3637673645 20.5862270377 0.103103177559
3551 1 30.1592667665 20.6499590034 0.0315928962015
3854 1 31.5289024678 18.6353681072 0.225810102003
3813 1 32.8731699014 18.8286451001 2.25323814485
3852 1 31.5833687101 20.9076888864 2.01600219624
3879 1 32.9102078945 20.6517172769 0.00082217904991
4182 1 34.275905204 18.6381989529 0.238330518545
4180 2 34.2796769806 20.6777770302 2.02555804989
4510 1 37.0312044719 18.6581092405 0.229802195827
4141 1 35.6928389077 18.8216381615 2.24941438773
4508 1 36.9717428139 20.9195364359 1.99115487414
4797 1 41.1280760368 18.898787707 2.252897566
4469 1 38.3874707081 18.9056912782 2.25930719684
4836 1 39.7726817708 20.9161145625 1.97547769906
4838 1 39.7380411551 18.6934753854 0.243066950364
245 1 45.2765931258 20.7908654081 2.12149050003
5125 1 43.9005187855 18.8211654141 2.21842222202
5164 1 42.56520382 20.8867798847 1.97147495564
5166 1 42.5375212034 18.6925653687 0.228692182908
246 1 45.406893863 18.4935982649 0.220337342219
5191 1 44.0537664661 20.6117979231 0.0319693363749
569 1 3.154853224 23.6467461238 2.61397434157
627 1 1.87747387224 23.8383712858 0.65044475849
5122 1 0.414951254804 23.4875106623 2.65690691044
242 1 0.0510543398211 25.3417698647 1.01697279927
530 1 4.45586861476 23.8290227988 0.530995954317
858 1 7.20169378411 23.9057880281 0.511220138387
897 1 5.87719112312 23.6806460544 2.54801282557
1186 1 10.0150810298 23.9295988392 0.51864235713
1225 1 8.64936099113 23.7098989904 2.52802552044
1553 1 11.4353505069 23.7135536666 2.54099259822
1884 1 14.2069666181 21.9456034891 0.279081226315
1514 1 12.808635365 23.9517970769 0.528638436954
1881 1 14.2343167823 23.7332577528 2.54023602267
2212 1 16.9889469802 21.9811039729 0.226200185056
1842 1 15.6016487544 23.9759620891 0.52689705255
2170 1 18.417433774 24.0132137717 0.515619451055
2209 1 16.998842011 23.7840689797 2.5415483474
2540 1 19.9206664338 22.1042609921 0.296752686091
2495 1 19.6761088473 23.6968004846 2.54411805163
2537 1 21.281603994 24.2791157802 0.2225810945
2494 1 21.7677564925 22.6339128334 1.94250323696
2531 1 21.4806332116 25.2496661819 3.06348636209
2923 1 23.2396026462 24.7007711787 1.53526342563
2826 1 24.6136216011 22.7735866494 1.72868471843
3192 1 25.9635792258 24.7941896385 1.57068133374
2859 1 24.4455988327 25.2560074752 3.523332644
3154 1 27.2898543171 22.7737453813 1.79169755093
3478 1 30.1180155714 25.0895951653 3.54143034251
3482 1 30.1566919237 22.8721821491 1.7961553685
3520 1 28.6898915173 24.830169299 1.54874709759
3150 1 27.2880540729 25.0887728721 3.5616975548
3806 1 32.9117148836 25.1250235737 3.5425522961
3810 1 33.0229020569 22.8920833378 1.77099248973
3848 1 31.5524970803 24.8593079173 1.54434331856
4176 2 34.2731206838 25.1105146767 1.50923286661
4134 1 35.6652060434 25.1350172484 3.52151299741
4138 1 35.5341908286 22.9059837792 1.76155737238
4504 1 36.9925830592 24.9026995508 1.52037566155
4462 1 38.4374189266 25.1573380372 3.47118919671
4466 1 38.3664672712 22.9222532235 1.70244714691
4790 1 41.2860350331 25.2098519099 3.48213326814
4794 1 41.2090941229 22.9264303333 1.6588503727
4832 1 39.8545779623 24.9356727972 1.51633175397
4833 2 39.7751578869 23.0752332528 3.54760932702
5190 1 45.655757744 22.4017896593 0.240633522768
5160 1 42.6835851963 24.9691971921 1.45926101025
5161 1 43.9711627182 22.9428238854 1.80977515121
5118 1 44.350061239 25.2818276576 3.10763588722
5158 1 42.4722969869 23.1689531609 3.63083695975
198 1 1.64499637689 25.6009288069 2.86357033847
568 1 3.15000325093 25.8036684675 0.870107182807
563 1 3.06094410568 27.6100750544 3.12744734902
197 1 1.7051290898 27.5981227748 1.24358679026
241 1 0.0462874884972 27.3761641138 3.16014268772
526 1 4.50791528585 25.6755634235 2.8506021359
525 1 4.37258213609 27.8946488579 1.04002707561
853 1 7.21697278941 27.9100519718 1.01824526847
854 1 7.24991344255 25.705583689 2.79460121644
891 1 5.85433575664 27.6925158082 3.0255886025
896 1 5.81503993139 25.8999108086 0.786733403833
1181 1 9.9984747836 27.9459082581 0.989257047826
1182 1 10.037714189 25.718653089 2.780248659
1219 1 8.64060968513 27.7125642104 3.01954926635
1224 1 8.6065710517 25.9200663382 0.760322329867
1552 1 11.4061972087 25.9520245503 0.761948080541
1547 1 11.4224784198 27.7394811069 3.00710618237
1509 1 12.7972244882 27.979704139 0.997022402524
1510 1 12.8305629695 25.7420584964 2.78312171164
1875 1 14.229589811 27.7813423789 3.0193532988
1880 1 14.2045160085 25.9845397185 0.775251079733
2166 1 18.4525687862 25.7325197486 2.89945015852
1837 1 15.6338696615 28.0105911317 1.03785886464
1838 1 15.617736889 25.7888627475 2.78781899966
2165 1 18.3550890484 28.0379657545 1.07227409032
2203 1 17.1085822967 27.793154416 3.08233372862
2208 1 17.0154015225 25.9878685691 0.81577371573
2536 1 19.70609473 26.1273504993 0.987350369481
2589 1 20.1079211109 27.5279069622 3.23627035636
2814 1 20.9619006268 28.7808369671 1.4487808597
2551 1 21.8821990802 26.6630951422 1.12505883321
2487 1 22.8689028663 27.2894099536 3.24668080989
3186 1 25.8808434195 28.8341896141 1.08183514581
3251 1 24.5914228873 26.7437666927 1.33903093094
3187 1 25.8838454447 27.1414664473 3.33387665962
2851 2 23.3113671923 28.5484816096 0.960695756426
2488 1 24.3767140607 29.1082835877 3.10828753834
3149 1 27.2760369649 26.8388146686 1.30394304217
3471 1 30.0611986741 29.1017186577 3.07851538092
3477 1 30.0823551599 26.8503471472 1.30424288062
3514 1 28.6475767571 28.854444387 1.06344865776
3515 1 28.6802119973 27.0896880569 3.31270256462
3143 1 27.2563506573 29.0937273131 3.09010421272
3799 1 32.8926514848 29.1265428337 3.08889713137
3805 1 32.8552641507 26.9352940601 1.30241962801
3842 1 31.4574665716 28.8917052323 1.07770527582
3843 1 31.4919867749 27.1098425578 3.31952907213
4170 1 34.2804472318 28.9304370672 1.08082637959
4171 1 34.2951095286 27.1396218383 3.3099935374
4127 1 35.7004491187 29.1564496041 3.10954528821
4133 1 35.6934559909 26.9598590645 1.29154310968
4498 1 37.1066430043 28.9315913665 1.10192046763
4499 1 37.0682410357 27.1561753804 3.29925728167
4455 1 38.53606047 29.156651884 3.1374585474
4461 1 38.4740794184 26.9200993797 1.31380125046
4789 1 41.3277770025 26.9556847991 1.28123993532
4826 1 39.9324684703 28.9309473615 1.10559890389
4827 1 39.9171585476 27.1708736984 3.30169893994
4783 1 41.405869754 29.1947436287 3.10597630844
240 1 44.1801163705 27.0790371474 1.14277760893
5154 1 42.7477911873 29.0038922646 1.10281773167
5155 1 42.7990413364 27.1568131699 3.23920984151
289 1 45.6461219772 29.1329780919 1.36305942844
235 1 44.1084794598 29.2269004757 3.13197373113
191 1 1.48474162423 29.4557306996 3.20792610644
293 1 2.91051251814 29.8198103656 1.29636676699
227 2 1.07111420441 31.3593115816 1.29307884579
555 1 2.86613950897 31.5375014379 3.32825168582
518 1 4.49375904967 31.8133421318 1.48545324076
519 2 4.42223643074 29.6588265569 3.25070194443
846 1 7.18955461903 31.9012849345 1.42457069094
847 1 7.24340926651 29.6987298448 3.23375034422
890 1 5.81427992715 29.87062468 1.24990717311
883 1 5.84294194791 31.6711197244 3.48242579575
1174 1 9.95898310209 31.9860632198 1.40637422824
1175 1 10.0132695361 29.7379707948 3.21517419091
1218 1 8.59435030871 29.9399243582 1.20479475258
1211 1 8.5969029817 31.7121959398 3.42639265328
1546 1 11.375939124 29.9822203784 1.20331346484
1539 1 11.3865765625 31.7522036884 3.41253514911
1502 1 12.7571867864 32.0096561693 1.41405564131
1503 1 12.801652069 29.7678831824 3.21593148272
1874 1 14.1900515035 29.9978460235 1.22060667369
1867 1 14.1733908621 31.7878542347 3.42738965386
1830 1 15.5546967493 31.996216354 1.43689411104
1831 1 15.6666805435 29.7929281315 3.23971292202
2158 1 18.369031474 32.1221904821 1.49083425218
2202 1 16.9868459529 30.0675088935 1.24826085833
2159 1 18.6619148805 29.7060336356 3.19884718329
2195 1 17.0573791965 31.8027331004 3.44935861908
2530 2 19.3868959405 30.1810333921 0.888510805007
2486 1 21.1004488317 31.7805497513 1.57687286194
2843 1 21.5932782967 29.8784994671 3.61943433225
2806 2 23.3696316295 31.1818259919 2.62884343823
2815 1 25.8413083419 31.0437111313 2.85501056735
3179 1 24.4248130781 30.8079846982 0.644797280906
3178 1 25.8742885047 32.845548342 0.56389214
3142 1 27.2101651654 30.8446960868 0.844189943894
3470 1 30.0417190303 30.8731041756 0.864363016041
3507 1 28.629854342 31.0969879683 2.86977918181
3506 1 28.6124283099 32.8478623524 0.631270003991
3798 1 32.8644962427 30.9010277599 0.854369575444
3835 1 31.4657945445 31.1071683706 2.86148858073
3834 1 31.4367547919 32.8776151798 0.620633224069
4162 1 34.2838332498 32.8939077509 0.631422303364
4163 1 34.2986245726 31.1411646853 2.88311111617
4126 1 35.7011086757 30.9140658068 0.865912645809
4491 1 37.1200172622 31.1412374977 2.90473763197
4490 1 37.1083158948 32.8981832057 0.617315574181
4454 1 38.5286445503 30.9105771467 0.874434924147
4782 1 41.3415506641 30.9189563611 0.828082506972
4819 1 39.9937409296 31.1249623068 2.91148775733
4818 1 39.8867580255 32.8894519632 0.54793391517
234 1 45.5574544424 31.1721819164 3.12662492717
5111 1 44.2778906353 30.8822067132 0.663316229206
5147 1 42.9639530203 31.4671374305 2.62535347391
5146 2 42.6760958127 32.904393503 0.523999374943
181 1 1.76272968791 35.7682333155 1.84776563114
226 1 1.39013208681 33.4236965636 3.12978197905
554 2 3.17083753655 33.7529214706 1.79914538631
190 1 1.05753922088 33.7168448846 0.204688235703
509 1 4.61965772335 35.7480655267 1.91759571861
837 1 7.13722111286 35.9354268213 1.90634822188
882 1 5.82699223447 33.8012367488 1.71885601411
1165 1 9.9205301232 36.0246327982 1.82353351218
1210 1 8.53408757707 33.9839820288 1.61550499432
1538 1 11.3327451178 34.0339080034 1.59359974376
1166 2 9.96107790965 33.680972409 3.53882002333
1493 1 12.6763651791 36.0370786391 1.84192957861
1866 1 14.1016494848 34.0330809811 1.64008135319
1494 1 12.7118091031 33.794648782 3.62607270546
1821 1 15.5058433736 36.0290758427 1.86602791002
2149 1 18.2299432417 35.9745873264 1.95314714595
2194 2 16.7382091298 33.9464750167 1.53217592506
2150 1 18.3760850602 33.8974651502 3.54397218111
1822 1 15.5594319898 33.7844155623 3.62435880193
2522 2 19.8081553382 34.0985169452 1.54532851453
2514 1 20.2687027996 35.7234105095 3.21928605833
2378 1 19.9815603691 36.2643612764 0.214381294545
2850 1 23.2310450719 33.0162000072 0.973713487946
2836 1 24.6582371345 33.1050760297 2.72909324545
2798 1 23.0152566339 34.9989084709 2.30641287035
3170 1 25.8633160764 35.108693055 2.43784296086
2842 1 24.4860694047 34.8401740634 0.389897711406
3462 1 30.0425235739 33.089546349 2.64492175521
3134 1 27.1971186842 33.0758656609 2.6861594403
3133 1 27.2708569075 34.8611943351 0.44168522489
3461 1 30.0246207302 34.8575117114 0.412446527677
3498 1 28.6473596447 35.0614995144 2.46150926603
3790 1 32.8564604635 33.1168712053 2.61936973061
3789 1 32.8614027254 34.8747601306 0.412301523998
3826 1 31.4411764104 35.1091310211 2.41453592345
4154 1 34.281384925 35.1164895554 2.42565450104
4118 1 35.713507505 33.1274156145 2.65142936531
4117 1 35.6905047431 34.8908221903 0.402245226871
4482 1 37.1040868809 35.1180314199 2.41658635072
4774 1 41.1932205507 33.1271548923 2.51242386135
4446 1 38.5178261432 33.1162985153 2.63628235119
4810 1 39.8930930548 35.1403605362 2.35483540315
4445 1 38.4960468808 34.8953367422 0.359936425356
4773 1 41.2729821717 34.8935758406 0.312319466756
5110 1 44.8668670621 32.9837913524 1.54080985157
247 1 45.2650932566 35.1923778297 2.18926181051
5138 1 42.7650599201 34.9775247404 2.23188421998
5101 1 44.1576408032 34.8864780576 0.163064368924
78 1 0.404926602999 3.37840270353 4.00105661626
40 1 3.13701490707 3.40103019016 4.44322188011
540 1 3.06305507006 0.982573678617 6.07378808795
174 1 0.638840281394 1.08018792989 5.91344426642
402 1 1.69075959719 3.26634765617 6.17465168513
406 1 1.84323315633 1.37168829281 3.74962706658
407 1 4.34720258119 3.03082090587 6.40972289099
368 1 4.41843082716 1.15819617183 4.10991008758
692 1 7.07179377341 2.97658514327 6.34026922115
696 1 7.11278685533 1.18652764177 4.13212858623
735 1 5.72915652679 0.948442252254 6.15845871969
734 1 5.67367895657 3.2245592376 4.32355189371
1020 1 9.89190199628 3.01899389604 6.33328593521
1024 1 9.91185838582 1.22979590857 4.10950363234
1063 1 8.52064908867 1.02381007276 6.13227661053
1062 1 8.49520301329 3.23562854335 4.34572182962
1391 1 11.3240577848 1.03080976185 6.11378634561
1390 1 11.3027700388 3.23889704161 4.3423646523
1348 1 12.7484358769 2.98051132373 6.31539485832
1352 1 12.6866047099 1.21742976812 4.08847541923
1719 1 14.1138618051 1.00955516334 6.08658872066
1718 1 14.1215133229 3.22618768725 4.30665030512
1676 1 15.570713912 2.9998913484 6.29731576409
1680 1 15.5287954323 1.26116363326 4.09187542652
2008 1 18.4992605281 1.08085646251 4.06854595144
2047 1 16.954067649 1.00606389921 6.05331175589
2369 1 18.3012085862 3.05119307215 6.28006929975
2046 1 16.997641343 3.19776563659 4.26536310804
2333 1 22.7595622753 0.585741224422 4.14274453972
2698 2 19.5015366293 1.14465121374 6.25405462456
2697 2 19.646613445 3.23483778374 3.9818325864
2662 2 22.6067036626 2.843996677 4.80921622556
2325 1 21.9672522572 3.57635338668 6.99213831121
2701 1 24.6251510164 2.69289423571 3.90855863147
3033 1 25.9011120325 0.704045417774 4.17414346155
2704 1 24.3550999792 1.18696010687 5.90914430648
3030 1 26.0468708152 2.98895483032 5.91032065277
2991 1 27.3641206752 2.70619501134 3.96140657319
2992 1 27.2395194897 0.918630703107 6.19980367788
3319 1 29.9779577307 2.73117074255 4.00806014871
3320 1 30.0376977092 0.991588371919 6.23809941237
3358 2 28.6502693679 3.0864402385 6.07322096136
3361 2 28.6547704451 0.522088122622 4.25065313127
3647 1 32.8450371592 2.75793944217 4.01676824642
3648 1 32.853223361 1.0136291122 6.24596146592
3686 1 31.421449633 2.98885025073 6.00478363572
3689 1 31.4119556397 0.777751774775 4.22786522179
4014 1 34.2847467127 2.98798945629 6.0201328266
4017 1 34.2924215689 0.783761678254 4.23504017218
3975 1 35.732952013 2.79278656454 4.01274635545
3976 1 35.7034327875 0.97739924002 6.26216464686
4342 1 37.0937610696 2.99745490377 6.01957029651
4345 1 37.0665932161 0.733687285049 4.22573355073
4303 2 38.4635420913 2.58888438817 4.02189754039
4631 1 41.1377583618 2.8523101857 3.96859148242
4304 1 38.4768305576 0.994495466548 6.24036668977
4632 1 41.2754610328 1.02944372402 6.21697738807
4670 1 39.8296732822 3.01985071427 6.03838353903
4673 1 39.8861612925 0.78074415215 4.18561087307
218 1 45.1777187024 1.10169278856 3.81396247775
79 1 44.9465049284 3.09330194858 6.04798544182
4959 1 43.7604004314 2.90038291467 3.89250600548
4998 1 42.5117747225 3.10875557381 6.04490723346
5001 1 42.5147347722 0.867350772534 4.05778379742
37 1 43.7923510116 1.02864695446 6.03572944579
401 1 1.52240353946 5.40678222103 4.54853044346
30 1 2.85132351961 5.18097943755 6.66136547899
393 2 1.61311902859 7.1844602775 6.58981216219
363 1 4.4095670959 5.35714427067 4.64269881304
691 1 7.07522400726 5.24153892385 4.52427976304
729 1 5.71025704412 5.05014642003 6.59271948087
685 1 7.09476803351 7.06050904522 6.75907196834
357 1 4.32444945358 7.13007521034 6.74221095235
1019 1 9.92028439003 5.22482991658 4.59775987343