ITEM: TIMESTEP
46000
ITEM: NUMBER OF ATOMS
5248
ITEM: BOX BOUNDS pp pp pp
0.0 45.68
0.0 36.5618393957
0.0 36.5618393957
ITEM: ATOMS id type x y z
409 1 3.17711284141 1.55460141267 2.14550862446
39 1 1.35144466793 2.91010488061 2.53000052755
41 1 1.4335713552 1.89148739849 0.0602742651506
697 1 7.12787500565 1.81611443786 0.057932851436
737 1 5.75589300525 1.56799007993 2.07958443797
695 1 7.11341054273 3.58040022323 2.29016032732
367 1 4.3422661662 3.61626320055 2.26047075726
369 1 4.23546091736 1.90580954252 0.0657160604966
1065 1 8.52751463568 1.54640713472 2.0716026264
1023 1 9.93889411631 3.51208887846 2.29404969824
1393 1 11.3469367983 1.52463908742 2.05407138623
1025 1 9.9181292875 1.7357771597 0.0520882367644
1353 1 12.7489674055 1.74741611958 0.0457234863818
1721 1 14.1770882725 1.5469910206 2.03515426007
1351 1 12.7716102582 3.50454139552 2.28436664115
2049 2 16.9996916649 1.70471529487 1.92591524699
1679 1 15.5468857607 3.56693187704 2.26220673534
2007 1 18.3596701555 3.63660778936 2.22014389917
1681 1 15.5611152673 1.77214988159 0.00980034639801
2377 1 19.6616300258 1.70257529059 1.92070364079
2706 1 22.8980539381 0.154804847028 0.0445517729873
2336 2 23.218781173 2.45739123688 1.60954657518
3032 1 25.8013043169 2.45640242673 1.92851602133
2665 1 24.352123817 0.500589016644 2.19240105354
3034 1 25.729254559 0.154287128071 0.144706567466
3360 1 28.6240780371 2.45238298223 2.00779076337
3321 1 29.9994111346 0.477610532192 2.24086568186
2993 1 27.1492826083 0.465169696665 2.21415009607
3362 1 28.6099146146 0.226128813881 0.227072416232
3059 1 27.233784849 2.19089039501 0.00058537606453
3649 1 32.8030691956 0.498458481767 2.25117018528
3688 1 31.3730601109 2.50441076927 2.05160503042
3690 1 31.4112481589 0.230840798374 0.242729625775
4018 1 34.2131603608 0.238660355596 0.248352702433
4016 1 34.201171463 2.50827892135 2.04899897122
3715 2 32.798611845 2.18449448311 0.144387952254
3977 1 35.6293100148 0.494730282581 2.22808298005
4344 1 37.0081799796 2.48976361501 1.98847166738
4346 1 36.9972537026 0.26930066295 0.229484686257
4043 1 35.5553903985 2.2606172946 0.0117234223445
4305 1 38.4367312974 0.486523407136 2.18902085362
4672 2 39.8106638883 2.4702422741 1.95248929709
4674 1 39.8379397357 0.20216706276 0.189233023862
4633 1 41.2674983409 0.429948493806 2.12674728806
81 2 45.3170153394 1.89054974455 1.66402673354
5000 1 42.7375784022 2.33848234574 1.96430769111
5002 1 42.622856956 0.148135594832 0.0978161196
4961 1 44.0674860955 0.103918887434 1.9797316984
36 1 3.21018854786 5.9515774435 2.2126235797
77 2 1.25503736903 5.05503529733 2.01009869792
408 1 2.74016312966 3.94007473115 0.341454256626
35 1 1.11710047511 6.3962163667 0.162808158857
736 1 5.68259997424 3.824224396 0.262494365556
366 1 4.34435469253 5.88087128832 0.276766740511
694 1 7.15048840042 5.75828995654 0.50445139651
733 1 5.68920848191 5.62388738536 2.48952315655
1064 1 8.53488127253 3.75679832747 0.278186440389
1392 1 11.3448563025 3.72818001513 0.275637964611
1022 1 9.95047454331 5.73225076864 0.490267883297
1061 1 8.58006052679 5.53436221427 2.52334823116
1389 2 11.3681939996 5.42311115515 2.39683732121
1720 1 14.1552982324 3.74806003167 0.253305559078
1350 1 12.7710369221 5.72982078975 0.47762016668
1717 1 14.1344329557 5.51661708009 2.52369874702
2048 1 16.9616470345 3.76447695958 0.220351131682
1678 1 15.5606763717 5.7412533592 0.485766911362
2006 1 18.3364506935 5.72019587352 0.441569431456
2045 1 16.9600736753 5.54117233329 2.53330435271
2335 1 21.454508564 3.91401159712 2.25764230278
2376 1 19.8589093143 3.77813862727 0.246959820051
2373 1 19.6741587609 5.57713924342 2.47631695771
2387 1 21.113227748 5.7311175896 0.453397570691
2663 1 24.4249636835 4.47497846116 1.74493831409
3028 1 25.9995746919 6.28438619952 1.312072178
2722 1 23.0838533332 6.3527687749 1.41680325492
2695 1 24.866313605 7.30769212525 2.94321172131
2986 1 27.2452600038 4.39265489901 1.76562426369
3318 1 29.9874353504 4.4810737333 1.81061828561
3356 2 28.5818737571 6.40609771822 1.45291719123
3314 1 29.884808277 6.76400073575 3.60214891763
3023 1 27.1955909594 6.69293760662 3.48326880567
3646 1 32.7589744435 4.51721122538 1.81543819644
3684 1 31.3135084852 6.51901629122 1.58962537463
3642 1 32.7407095937 6.75720445986 3.57552675067
4012 1 34.1606502861 6.50635994606 1.58195230958
3970 1 35.5959070937 6.75406168262 3.57029633014
3974 1 35.5741740129 4.4941355023 1.78406934675
4340 1 36.9614635409 6.48963152223 1.5585097011
4302 1 38.3760137983 4.48668074385 1.76903796674
4630 1 41.1579326801 4.46298177198 1.75335251524
4668 1 39.7740970128 6.47011085846 1.56848394639
4626 1 41.0966675482 6.81467404684 3.58379199064
4298 2 38.358159048 6.66565997352 3.4859948223
4958 2 43.6378677727 4.48998657473 1.6443273801
4996 1 42.4898600132 6.54490104365 1.62642313318
4954 1 45.0488353412 5.87540282865 2.58769312568
80 1 45.5646056853 4.11136649673 0.161474618866
404 1 2.9521388658 8.01348814153 0.545895225051
70 1 1.41452774046 7.61591592904 2.47910591235
38 2 0.341288146348 9.54236402425 2.42274784119
392 1 2.85192077458 9.76027554885 2.89381228295
86 1 0.858476482209 9.61492989986 0.159605965063
362 1 4.35133586948 7.80233194353 2.69178366249
361 2 4.53870109445 9.72089102756 0.897537247634
689 1 7.26223987769 9.7433242231 1.00400512188
690 1 7.16505113874 7.54422507042 2.76434709782
727 1 5.83561353392 9.60116228066 2.99397758572
732 1 5.81379566697 7.76353680799 0.712013382088
1017 1 9.99332417279 9.70589554587 0.962271504806
1018 1 10.0027765675 7.4875713206 2.74060497714
1055 1 8.62567288369 9.49882494265 2.98024083724
1060 1 8.59581109015 7.72441379743 0.759538841734
1388 1 11.3725283841 7.71862498894 0.736415596576
1383 1 11.3767761556 9.49802631989 2.95621578229
1345 1 12.7716537377 9.71379029163 0.940058489347
1346 1 12.7493849333 7.48999946515 2.73159716121
1711 1 14.1507230809 9.50048138956 2.93037939571
1716 1 14.1388297634 7.72376551942 0.717611223482
2002 1 18.2803345171 7.5378461028 2.72253532618
1674 1 15.5366338843 7.51229350587 2.71907363979
1673 1 15.5226129526 9.73241790933 0.900067240087
2039 1 16.9113415116 9.52279978257 2.88376499371
2044 1 16.9387297872 7.73999681695 0.67968953962
2001 1 18.3454358304 9.73642937773 0.81330977779
2759 1 21.2217529034 7.43941089306 2.85259798336
2334 1 19.6482252724 7.68253825927 0.786300673945
2367 1 19.6072148638 9.53624932069 2.84820145659
2329 1 21.15135678 9.47079289726 1.07366666797
2323 2 23.1294048935 8.46973060273 2.22214884148
2059 1 24.7631504804 9.84254669228 2.98521758031
3022 2 25.8613587083 10.6499564388 1.06021081387
2985 1 26.9745011039 8.56291886584 1.7307926421
3307 1 29.8837631154 10.7764868994 3.19919905316
3313 1 29.8481792733 8.50546148432 1.38745565956
3350 1 28.4828717883 10.5071667921 1.21285058331
3351 2 28.5693529568 8.8656522142 3.52645241074
2979 1 27.0044194589 10.8631213865 3.22215074926
3635 1 32.7352658362 10.7278064354 3.13309526631
3641 1 32.7315259006 8.5094091835 1.36162430058
3678 1 31.2904119058 10.494028439 1.15116028553
3679 1 31.3076994021 8.74414358186 3.34070934536
4006 1 34.1536650811 10.5062539049 1.12881051385
4007 1 34.1634833723 8.7407729223 3.35745964184
3963 1 35.5580961229 10.7425545443 3.1361472064
3969 1 35.5769269372 8.50704749078 1.37049364774
4334 1 36.9721047495 10.5115981915 1.14428738178
4335 1 36.979619956 8.75139759927 3.37271273725
4291 1 38.3438771811 10.7630970197 3.16014031026
4297 1 38.3570490448 8.48650204804 1.3794988236
4619 1 41.0819769173 10.7578247238 3.17187701221
4625 1 41.0981321471 8.48998862867 1.3795510753
4662 1 39.728850114 10.4946696995 1.15299701703
4663 1 39.7063074358 8.76007675582 3.38949384181
71 1 44.1766312648 8.37803633805 1.54422196655
4953 1 42.5263793088 10.3865778145 1.20550898321
4991 1 42.442076765 8.87110526629 3.34144765024
4946 1 44.007311207 10.7663456215 3.08212685965
398 1 3.30248084864 11.7544461268 1.45143194935
391 1 3.25751177829 13.7260711913 3.38825246624
453 1 1.79549292707 13.8311974919 1.44510998425
129 1 0.302948740932 11.7454591229 1.5793079539
63 1 0.299791416166 13.8720019042 3.48110378277
399 2 1.70895477086 12.132097313 3.30477246331
354 1 4.62159565728 13.8217441041 1.43264656617
355 2 4.74701987011 11.7062983051 3.35788920942
682 1 7.35149391338 13.7945051374 1.41065944081
683 1 7.33127250317 11.5488800981 3.21506572405
726 1 5.96449954587 11.7744734002 1.26218105013
719 1 6.01119321982 13.6437375748 3.43699821241
1010 1 10.0540709164 13.7610823469 1.38779796606
1011 1 10.0093892137 11.5205685498 3.22059797377
1054 1 8.67902041208 11.7533473249 1.18838963782
1047 1 8.68956702743 13.565621632 3.42166072796
1382 2 11.3904768365 11.6252991039 1.27355488656
1375 1 11.4121613999 13.5329184962 3.40405705931
1338 1 12.7620277038 13.750760156 1.37445499974
1339 1 12.7852447993 11.5108390625 3.19854318368
1710 1 14.1424525019 11.7527728036 1.16467219234
1703 1 14.1451452192 13.5267995597 3.37806772874
2366 2 18.2741930796 11.485463695 3.10809328129
1666 1 15.5436370615 13.7645558641 1.40610794897
1667 1 15.546983416 11.5185384963 3.18777596101
1994 1 18.1770595613 13.6513643221 1.45428423628
1995 1 16.8741493206 11.7047053322 1.12511958103
2031 1 16.9085047764 13.5230767751 3.46237651706
2359 1 19.7017741034 11.6686543006 1.08633399782
2678 1 20.7872119987 13.8265615287 1.26634446596
2421 1 22.2150113352 11.7210876321 0.879660799823
2679 1 19.5842760915 13.4771518301 3.2905975502
2680 1 22.3961650191 13.6316346455 2.88155514392
2688 1 21.0097030467 11.5401081531 3.06964587309
2866 1 22.7648398343 14.259057276 0.0611364800418
2694 1 24.4635113777 12.6046598531 1.52946308353
2642 2 26.130267501 13.2226975654 2.9774128844
3014 1 25.6751906611 14.4569495212 0.37828205153
2643 2 23.2569033828 11.5678576523 3.14223801668
2978 1 27.2678263881 12.598360916 0.944155935591
3306 1 29.9392857074 12.5248193823 0.925693270738
3343 1 28.5432047069 12.8038577149 2.99114076217
3342 1 28.6162789007 14.5529234027 0.471651353246
3634 1 32.7479119278 12.5003728398 0.880801658498
3671 1 31.3630330956 12.7226404174 2.91038831328
3999 1 34.1346427832 12.7462876796 2.89952564136
3998 1 34.154809211 14.5382076501 0.646314547613
3670 1 31.4298018683 14.5357779571 0.606647850918
3962 1 35.558364785 12.5237883438 0.900015208528
4327 1 36.9438849035 12.7642068355 2.91929677531
4326 1 36.972632927 14.5354301885 0.694970744172
4290 1 38.3721316365 12.5282842926 0.927155869245
4618 1 41.1398946519 12.4575571952 0.931858629465
4655 1 39.7577468203 12.7752547234 2.95397121274
4654 1 39.7973381649 14.5258137666 0.728055049295
125 1 45.208978292 14.3647382392 0.880361702074
4938 1 42.4610650102 12.6592799778 3.00421083533
4990 1 43.8193026846 12.4027755405 1.02012096091
4982 1 42.5019620137 14.4982527644 0.722345665337
27 2 43.7294541233 14.4967754155 2.67846368788
26 1 3.177445555 15.8491069422 1.51342599549
382 1 1.45792584766 18.0986355098 1.99330564086
62 1 0.97361794688 16.2494711663 0.631289382376
390 1 1.82439256859 15.7319085638 3.42851534924
574 1 3.02889335705 18.0522818149 0.0640458442533
345 1 4.48632480683 17.8276740168 1.88935614285
673 1 7.30153464581 17.8436395575 1.8167163085
718 1 5.95372446908 15.8389363376 1.61080060518
346 1 4.58656446239 15.6559028691 3.58102315674
674 1 7.34857297123 15.6185942322 3.62442480995
1001 1 10.0570586445 17.8196635809 1.80421302275
1046 1 8.70757965608 15.8080273226 1.58814480703
1002 1 10.0640344511 15.5618596661 3.63087452897
1374 1 11.4138171902 15.7769287649 1.5854878088
1329 1 12.7908629678 17.787835399 1.8219382092
1702 1 14.1573999294 15.7632654297 1.59102298435
1330 1 12.7890334546 15.5472957495 3.61918222431
1657 1 15.5611528667 17.7832130169 1.79200716762
2030 1 16.9945341175 15.7992488274 1.58701861073
1985 1 18.4007650179 17.9079557467 1.79508204021
1658 1 15.5514924065 15.523643367 3.58342283145
2869 1 19.5852332616 15.8430325215 1.60152936642
2351 1 21.3307968237 18.0749226525 2.23000996742
2360 1 22.2703621579 15.9136627715 1.79725063083
2635 1 20.7832753808 15.5912548969 3.555414518
2824 1 24.411818454 14.9986284584 2.33786512056
3006 1 25.8671963801 16.9253987645 2.29289420689
2313 2 23.7562277452 17.6488774748 1.63011540516
2970 1 27.3233487755 14.9480030447 2.38073924491
3298 1 30.027128203 14.6952590263 2.54593850789
3297 1 30.0615354329 16.5099481087 0.258170084822
3334 1 28.7685781666 16.7870268349 2.14043450382
2969 1 27.1090734065 16.5061688599 0.232424559894
3626 1 32.7542083312 14.7699650355 2.65198425868
3625 1 32.8318046022 16.5905442556 0.397234608325
3662 1 31.3735598849 16.765358322 2.36463840837
3990 1 34.1551519861 16.781794641 2.42647950596
3954 1 35.5296619812 14.7636617903 2.66729725456
3953 1 35.5785327274 16.5340145455 0.444766605159
4318 1 36.9481004833 16.7513413207 2.45766006283
4282 1 38.3614774976 14.7654798319 2.71802403303
4610 1 41.16154607 14.756058244 2.75624532451
4646 1 39.7915822331 16.7541260322 2.53136256256
4609 1 41.2197076776 16.5480121664 0.563790270465
4281 1 38.3891874109 16.5333962464 0.492119179173
4974 1 42.6565034942 16.7436589461 2.62211599396
4937 1 44.0090036342 16.4803631299 0.640060940291
49 1 45.1766682829 16.1331175393 2.83484682491
573 1 3.09289642113 19.8276959447 2.06355370521
244 2 1.93114265853 21.7451961685 2.44377451621
205 1 1.41706695635 20.2013884256 0.228461610325
901 1 5.83283756777 19.8374478236 2.05755650905
859 1 7.20940007099 21.8251592568 2.24698769039
531 1 4.46345257384 21.8307711895 2.22922689497
861 1 7.21063338225 20.0683893651 0.0417618245837
533 1 4.37545484449 20.0638485951 0.0306496105886
1229 1 8.64372962562 19.8445828801 2.05046021168
1187 1 10.0200442761 21.8421888231 2.27614697896
1189 1 10.016977748 20.0568470904 0.0245053669793
1557 1 11.422014838 19.8243656038 2.0565236257
1885 1 14.1943998649 19.7935017274 2.05335493377
1515 1 12.8251336156 21.8159742772 2.28565964789
1517 1 12.7940291867 20.0408276007 0.0311864827807
2213 1 17.0185688565 19.8248178695 2.00884995682
1843 1 15.6106673895 21.7789850509 2.28727404196
2171 1 18.462774944 21.8224956687 2.25299735118
1845 1 15.5728262815 20.0460627121 0.0409186196084
2173 1 18.4843457419 20.1428343798 0.0573338338494
2828 1 19.9820139961 19.9656005385 2.07755419617
2541 1 21.4150945547 20.2906984902 0.00401466053665
2868 1 23.0630458474 20.0853977419 1.77610025454
3196 1 25.8520653284 20.6663330218 1.87902792435
3198 1 25.618075426 18.467307357 0.126112026887
3157 1 27.3661573892 18.7657762394 2.07295865777
3485 1 30.0632897148 18.8253295489 2.14782017186
3524 1 28.6818493395 20.7854361111 1.95266941261
3526 1 28.6142226379 18.4880076339 0.087490636758
3854 2 31.3144703976 18.5260460145 0.137442747248
3813 1 32.777984295 18.7758960613 2.18568161445
3852 1 31.4474136732 20.8100991487 1.99649757076
4180 1 34.2096378561 20.777795867 2.00991104181
4182 2 34.3766696818 18.6525957855 0.312525182302
4510 1 36.9938213428 18.5397301647 0.235265922186
4141 1 35.6011218434 18.7728400664 2.26738735229
4508 1 36.9906231521 20.7652213237 2.03418254556
4207 1 35.6593630859 20.5928100216 0.00639823658905
4797 1 41.2339545403 18.6989649721 2.34426256786
4469 1 38.3701638386 18.7512130563 2.26412455445
4836 1 39.8178422365 20.7055837861 2.0478364778
4838 1 39.8122981969 18.5355544904 0.304509514964
4863 1 41.2144794044 20.5205884755 0.065391105389
4535 1 38.4139422284 20.5589474819 0.0498999226724
246 2 45.3511809419 18.5044685443 0.29878272195
245 1 45.5993506981 20.6211669981 2.13619292426
5125 1 44.2394715047 18.6222134915 2.52805635632
5164 1 42.6067709833 20.6100191158 2.05727925974
5166 1 42.6831308027 18.5215867704 0.39175651428
5191 1 44.1191381548 20.5036228388 0.17819185044
572 1 2.95684668864 22.0457732497 0.145035215949
569 1 3.14712172292 23.8695159663 2.39577341112
627 2 1.81545624557 24.0281325242 0.3680106329
5122 1 0.33372147601 23.5912373604 2.05888318926
900 1 5.74455306275 22.0682462173 0.185170970609
530 1 4.35721804054 24.0702462098 0.317739487513
858 1 7.18986483306 24.0729381981 0.407112464446
897 2 5.81100942691 23.7753221358 2.28474894066
1228 1 8.60971431054 22.0637616952 0.255467240615
1186 1 10.0052008283 24.0699061829 0.48856570799
1225 1 8.58181241468 23.8338437494 2.46703225399
1556 1 11.4098595986 22.0600592342 0.263725038678
1553 1 11.4303210755 23.8285002015 2.49795999894
1884 1 14.1948874672 22.0445349527 0.268907765723
1514 1 12.8169580141 24.060777964 0.492803537602
1881 1 14.2371457676 23.8063042181 2.51014625723
2212 1 16.9927221893 22.0419634743 0.258631147137
1842 1 15.5870711152 24.0458044326 0.47034522493
2170 1 18.3558558083 24.0381451902 0.4357533176
2209 1 16.9784037686 23.7554715128 2.47365018462
2494 1 21.4723716229 21.9949694478 2.11185648109
2540 1 19.8765780445 22.1201697416 0.18114609668
2495 1 19.7890476921 23.8239163502 2.38565600936
2537 1 21.1288754649 24.1776966608 0.298274171265
2923 2 22.5041019159 24.0071498265 2.07513430735
2826 1 24.4152837026 22.5567421344 1.80586921879
3192 1 26.0123420545 24.6931105382 1.48119835575
2859 1 24.8865587757 24.8538502274 3.53514361673
3154 1 27.2627951705 22.6983734233 1.81499698344
3482 1 30.0534565277 22.789244235 1.77908274615
3520 1 28.6659672632 24.7930888308 1.58577986742
3478 1 30.0712892122 25.0560192379 3.5768460869
3150 1 27.3113104867 25.0511992328 3.57278279661
3810 1 32.8485621786 22.7838232038 1.78067833744
3848 1 31.4568835743 24.7926669414 1.5758573846
4176 1 34.2401144721 24.7875382235 1.5628347722
3806 1 32.8518890087 25.041570901 3.57480028276
4138 1 35.6338716731 22.7841872925 1.7971747205
4504 1 37.0488928842 24.7647242256 1.55485621823
4134 1 35.6350000982 25.0227748614 3.55612344041
4466 2 38.4090000048 22.676031664 1.91001823802
4794 1 41.1588582414 22.7203976835 1.77093176077
4832 1 39.7578873067 24.7228736396 1.49872676518
4790 1 41.0394977208 25.0907285026 3.45202854353
4462 1 38.4069154103 25.0115795508 3.56479632002
5160 1 42.6588243892 24.693172002 1.75588676995
5161 1 43.9811304758 22.5179048244 1.93985233368
198 1 1.55012595049 25.720977028 2.59981742354
568 1 3.005114429 26.0624138544 0.689159768116
563 1 3.07499485098 27.7346947606 2.88846842527
197 1 1.59327591013 27.9863561403 0.865286399236
241 1 0.237851291303 27.6671749956 3.02540570944
526 1 4.47404404815 25.8219377169 2.64352842649
525 1 4.39258357059 28.065882795 0.899371578474
853 1 7.1901431009 28.0568100052 0.874879549304
854 1 7.19034646052 25.8192276194 2.65945711412
891 1 5.83702048356 27.8168012949 2.88814627692
896 1 5.77112271955 26.0573547415 0.625930527572
1181 1 10.0200227887 28.0666507269 0.942649786753
1182 1 10.0069529365 25.8182795454 2.70497348728
1219 1 8.6027418666 27.8065150811 2.88798319491
1224 1 8.58713014339 26.0694572953 0.689949615752
1552 1 11.4191212743 26.0681630906 0.717958497745
1547 1 11.4213546052 27.8232325836 2.93786001185
1509 1 12.809928731 28.0883388769 0.934841656994
1510 1 12.839869788 25.8249802587 2.72309755686
1875 1 14.2157735547 27.8480211293 2.94022999849
1880 1 14.2100501833 26.076247763 0.696902356933
2166 1 18.2510942796 25.7765989664 2.61469771074
1837 1 15.602591895 28.1014805085 0.935549833573
1838 1 15.6062363544 25.8199030941 2.69159887613
2165 1 18.2800604307 28.1097120799 0.98858960045
2203 1 16.9562149226 27.8614056566 2.98426193806
2208 1 16.9509128684 26.0678725115 0.645546592768
2536 1 20.9243975061 25.961869838 2.53014056358
2589 1 19.5411058307 27.7716121171 3.01926986328
2551 1 20.9424880869 28.0408860816 1.04875743303
2864 1 22.4629369749 26.1195876841 0.722278880938
2550 1 19.6237876804 26.0861574697 0.585676723124
2487 1 22.9644297012 28.1032719103 2.66793962391
3186 1 25.5768001885 29.066483949 1.47523702739
3251 1 24.6427003756 26.6514694742 1.18796718207
3187 1 25.7522579035 27.0998041337 3.29664649192
2531 1 23.024243539 25.9464785731 3.32393904045
2851 1 23.1769011374 28.4796312518 0.134522712712
3149 1 27.1643521918 26.861509648 1.25998354349
3471 1 30.0701635232 29.0691521913 3.15564870883
3477 1 30.0505459825 26.8071095569 1.3597414352
3514 1 28.6080708741 28.8401187906 1.22095215885
3515 1 28.6375489016 27.0653459784 3.31279971346
3143 1 27.2230951734 29.0973739082 3.19209993823
3799 1 32.8620510287 29.0662339214 3.1333393319
3805 1 32.8412889765 26.8035800889 1.33990003214
3842 1 31.426674161 28.8173959391 1.12949236413
3843 1 31.4711738053 27.0474863034 3.35295581994
4170 1 34.2552103347 28.8091962886 1.1347389267
4171 1 34.2481153414 27.0457975692 3.34143276443
4127 1 35.6448545277 29.0522288183 3.1445881695
4133 1 35.6537712235 26.7853821535 1.33493301789
4498 1 37.0528231252 28.8043260041 1.1373025667
4499 1 37.0247287449 27.0388855566 3.32481929038
4455 1 38.4296369362 29.0572739183 3.16948494258
4461 1 38.4174754263 26.7775332286 1.31524758027
4789 1 41.0949844115 26.7633110099 1.45789442551
4826 1 39.8346615805 28.7930544437 1.15024480969
4827 1 39.7205765287 27.058005748 3.33737748062
4783 1 41.256883999 28.9526762176 3.22942760362
242 2 44.7816241114 25.8107036253 1.65744454439
240 1 44.6579752856 28.1895197258 1.10321914141
5154 1 42.4874121548 28.9443790092 1.17773331783
5155 1 43.0066198433 27.048889412 2.97858121977
5219 1 42.8510618375 26.7171604789 0.0434244454916
289 1 0.532436782108 30.0263638508 1.31875970641
191 2 1.8268499567 29.5896600882 3.19869992677
293 1 3.02635674999 30.1014188139 1.10145076024
227 1 1.81394365809 32.3336367184 1.35097821808
555 1 3.01032625967 31.7460669483 3.45487369636
234 1 0.289749171785 31.5987281311 3.22179013265
518 1 4.39899370194 32.0803852383 1.44098605264
519 1 4.46480893109 29.8006258824 3.10977273699
846 1 7.19057470491 32.0570895933 1.37651574582
847 1 7.23940104523 29.813860879 3.09770420899
890 1 5.79350325207 30.0687261027 1.09935441466
883 1 5.86611564565 31.8205510649 3.37032254665
1174 1 9.95210342717 32.0868792958 1.35827898827
1175 1 10.0067149637 29.8246031516 3.13368498039
1218 1 8.57591371905 30.0569203231 1.0976311527
1211 1 8.61178384406 31.8287137825 3.37096607403
1539 1 11.3886420694 31.8545362381 3.37720763019
1546 1 11.3919897657 30.0918644876 1.1468621533
1502 1 12.7842473194 32.1068529378 1.37946191938
1503 1 12.7986353038 29.8455964233 3.1628907116
1874 1 14.2101498446 30.1098275957 1.1795511495
1867 1 14.1741049567 31.8637784721 3.39325112759
1830 1 15.6035395041 32.1426398034 1.43745267035
1831 1 15.6083743093 29.8840357558 3.22434977001
2158 1 18.4259718618 32.143831029 1.45867539941
2202 1 16.9686615621 30.1411362217 1.22794243485
2159 1 18.3784921519 29.8783854994 3.24688214525
2195 1 17.0297578843 31.9052801943 3.45380619953
2814 1 19.6997688041 30.1374253726 1.21524572603
2843 1 20.9131090142 29.6266969175 3.3388788197
2530 2 22.1074407675 29.925731037 1.48545504815
2523 1 19.8584117585 31.8793589291 3.44913378529
2806 1 22.7727039495 31.1587082233 3.36002612811
2850 1 21.3728974919 32.0639714128 1.44479295273
2815 1 25.6534044772 31.1938780822 3.07972220396
3179 1 24.0503661594 31.2586448478 0.878007805031
3178 1 25.7826092041 32.8345823394 0.709481137285
3142 1 27.1159319257 30.8540402286 0.996292256801
3470 1 29.9861277858 30.819636071 0.931135486507
3507 1 28.5821738415 31.0757567522 2.98416653644
3506 1 28.574042365 32.8105538344 0.6725627349
3798 1 32.8363667725 30.8084485245 0.912195163262
3835 1 31.4409515353 31.0692722176 2.91221584893
4162 1 34.2387386952 32.8041876841 0.671243413076
3834 1 31.4081453668 32.8016261333 0.679145124213
4163 1 34.2642091271 31.0642344184 2.91418342562
4126 1 35.6506182019 30.8112527711 0.908542059882
4491 2 37.0549586311 31.0533678558 2.92814588368
4490 1 37.0441829297 32.8000902241 0.655568340062
4454 1 38.4644769761 30.8120591658 0.891920754166
4782 1 41.0728965996 30.8371535427 0.943349501942
4819 1 39.8154973166 31.0273149455 2.96145715807
4818 1 39.8274753012 32.8189010298 0.631532031078
235 1 44.1192648366 29.2854612954 3.29877575645
5111 2 44.1893002665 30.7978762385 1.61857039438
5147 1 42.47417495 31.0512109912 3.0244643574
5146 1 42.6950837003 32.6645276219 0.586857226426
5117 1 45.2962101727 32.5858743216 0.578026934802
181 1 1.42464363587 36.5421512336 2.04443313209
554 1 3.13848852993 34.1940117899 1.73381574611
247 1 0.0415516712143 34.4844611605 2.18231914504
190 1 1.45732171328 34.5714822396 0.16270211353
410 1 2.91829842141 36.4062169057 0.00552468304923
509 1 4.43631561116 36.12203221 1.87274442035
837 1 7.15282970525 36.1042838337 1.84447921113
882 2 5.79544646076 34.0667649851 1.88431577177
1165 1 9.93020362849 36.090376056 1.82797355085
1210 1 8.51305009533 34.0916085177 1.59195843891
1538 1 11.356965287 34.0972599692 1.60162114476
1166 1 9.97153448504 33.8614407748 3.6037415133
1493 1 12.7706476226 36.1052978919 1.83588099244
1866 1 14.1834730613 34.1269522603 1.62388081843
1494 1 12.7845277938 33.8725077845 3.61676120629
2149 1 18.4185928411 36.1899401855 1.91302899833
1821 1 15.5927986584 36.1447111715 1.82366329953
2194 1 17.0107618669 34.1659687353 1.66798913686
1822 1 15.5714831832 33.8595708399 3.60265075241
2150 1 18.4694967288 33.9153444179 3.65282019798
2477 1 21.2652835803 36.4704574703 1.85077036384
2514 1 21.3816951254 33.7549459198 2.97638216095
2522 1 19.6595027893 34.2058676507 1.61058379533
2913 1 21.481715282 34.622055645 0.144149099676
2798 1 23.0665555759 35.2209584283 2.47209120314
2836 1 24.109791489 33.1200115439 2.57313729653
3170 1 25.7190240584 35.0231454766 2.39439631937
2842 1 24.171812242 34.6472924813 0.292632298279
3462 1 29.9810019538 33.0579673634 2.66951462613
3134 1 27.1829370993 33.0426146879 2.67662943553
3133 1 27.1566122569 34.8025404611 0.428497078497
3461 1 30.0059302369 34.8033284852 0.460979662288
3498 1 28.5767565659 35.048478121 2.42650104435
3790 1 32.8321900572 33.0559151041 2.65237677898
3789 1 32.8143998744 34.8052958713 0.461301636161
3826 1 31.4042143532 35.0526914489 2.45407987053
4154 1 34.2330853417 35.0585876803 2.43650272027
4118 1 35.6566460468 33.0619719227 2.6276672491
4117 1 35.6316980621 34.8111846616 0.452303687896
4482 1 37.0570419811 35.0519383344 2.41754747332
4774 1 41.2200843638 33.0376376194 2.60818647814
4446 1 38.4597888774 33.0468061664 2.62727613692
4810 1 39.85371757 35.0479904398 2.37188955883
4445 2 38.4245305074 34.8090239533 0.411000259021
4773 1 41.2993199882 34.7261816996 0.383408681894
5110 1 43.9476717615 32.9732550556 2.69201697441
82 1 45.639209057 36.5225340139 0.0778837854947
5138 1 42.6668392998 34.9480012893 2.41771537049
5101 1 44.0732220595 34.6898278358 0.371910846244
40 2 3.12406382568 3.16200858556 4.26524940548
174 1 0.233514570394 0.519995963378 6.18490262991
402 1 2.0009804309 2.30876663525 6.4998167035
406 1 1.76051517507 1.40800480478 4.34961340263
407 1 4.33443822326 3.08572780291 6.39476255854
368 1 4.39463271033 1.22044101576 4.20223110042
692 1 7.13672000453 3.0834706704 6.31078187128
696 1 7.14210150596 1.32806415502 4.08548364767
735 1 5.78565378283 1.06629804128 6.11767039906
734 1 5.71877322049 3.3412453705 4.31087924033
1020 1 9.95879807883 3.05094422907 6.28753775963
1024 1 9.96153026498 1.32030670834 4.0721647867
1063 1 8.56746531021 1.07733442968 6.08567858232
1062 1 8.56031592839 3.34150283527 4.29861392694
1390 1 11.3720343599 3.30294590817 4.2906663615
1391 1 11.3921242877 1.06789419545 6.06988024749
1348 1 12.7973627329 3.04598530146 6.28029800124
1352 1 12.785698978 1.30776919693 4.04962912837
1719 1 14.2016064438 1.05935792146 6.02118044106
1718 1 14.1732710371 3.31419226437 4.28396961962
1676 1 15.6099316638 3.04867399285 6.28132090557
1680 1 15.5891262767 1.32875491157 4.00885069524
2008 1 18.4811499306 1.22684971673 4.07468868559
2047 1 16.9219681546 1.0303571659 5.96961666095
2369 1 18.3348535684 3.05730749891 6.19221850988
2046 1 17.0127333263 3.28323493537 4.23225198522
2508 2 18.9073958429 0.629504246615 6.989234495
2697 1 19.7017631337 3.38010056192 4.20769836671
2370 1 20.570931413 1.64286146142 5.84236970273
2375 2 21.0212984495 1.64337608886 3.67288236609
2662 1 22.2346631155 3.33306148639 4.96406014238
2333 1 22.7419140069 0.383844057188 4.50491583321
2325 1 22.1469005723 2.9641635954 7.28290267774
2701 1 24.3636153183 2.75046712009 3.91255536468
3033 1 25.7388209625 0.797758618865 4.23699118475
2704 1 24.2328291922 1.37868870454 6.0550485053
3030 1 26.0232259866 2.93760800615 6.09248322257
2991 1 27.1735675859 2.74863643375 3.98189185018
2992 1 27.2056562657 0.94135940255 6.28576591082
3319 1 29.9686789784 2.76537077775 4.03763721469
3320 1 29.9638295905 1.02434379921 6.24696081755
3358 1 28.5486196247 3.03092763056 6.03888594152
3361 1 28.582535887 0.776335790273 4.23197490843
3647 1 32.7844660818 2.76993676755 4.03673584736
3648 1 32.8183118578 1.04177816112 6.23695385878
3686 1 31.3646181034 3.03197163009 6.04479564904
3689 1 31.3895392747 0.765640742046 4.24527063471
4014 1 34.2329843215 3.02139197586 6.01796623299
4017 1 34.2253842669 0.765668537939 4.22639666233
3975 1 35.6266353672 2.75552855733 4.00736531833
3976 1 35.6785883418 1.03322427418 6.19998721045
4342 1 37.0647444199 3.02852997257 5.99225799196
4345 1 37.0693089035 0.755704658091 4.1923413683
4303 1 38.4290069661 2.76263359128 3.97654875536
4631 1 41.2180278608 2.78856105531 3.88608204618
4304 1 38.494461664 1.03518908635 6.18608661737
4632 1 41.2675584079 1.05227082049 6.18092545045
4670 1 39.8639728035 3.03333484558 5.94786402839
4673 1 39.8721789646 0.772151822517 4.15018874099
79 1 45.3449217681 2.82625406716 5.77276255463
218 1 45.1258854309 1.15731336784 3.89980598502
4959 1 44.2165261209 3.26143256797 3.67970949004
4998 1 42.5959960271 3.10474825748 5.75384695411
5001 1 42.6517004421 0.862142901418 4.03204298125
37 1 43.7027659408 1.02127103675 6.15906433714
78 1 0.716089613217 4.33479316697 4.43750923068
401 2 2.01340551554 5.79435099462 5.6199613235
393 1 1.26400134748 7.27420783445 7.16666919414
363 1 4.23257055489 5.36889962597 4.47396255742
691 1 7.14001627737 5.33588962572 4.48438047377
729 1 5.73987727468 5.09042780114 6.43310206854
685 1 7.15804158301 7.04913939211 6.691225422
357 1 4.09891502388 6.99151535225 6.68668314024
1019 1 10.0241573309 5.31411060482 4.5110534146
1057 1 8.57813738433 5.06229493092 6.48555984227
1013 1 9.99558973696 7.02179462752 6.73641818466
1056 1 8.61390862683 7.26893951134 4.73384177211