ITEM: TIMESTEP
14000
ITEM: NUMBER OF ATOMS
5248
ITEM: BOX BOUNDS pp pp pp
0.0 45.68
0.0 36.5618393957
0.0 36.5618393957
ITEM: ATOMS id type x y z
409 1 3.29414208672 1.1759890263 2.16080795582
39 2 1.75764941578 2.77388272066 2.36078067751
181 1 1.1155488388 0.344612493302 2.10868290172
41 1 1.34328264202 2.14413444932 0.0256283110892
697 1 7.20722103776 1.79114886796 0.121279604292
737 1 5.70786960968 1.43744397007 2.07110546129
695 1 7.10639979771 3.49173679113 2.3484280123
367 1 4.32482250071 3.46122361058 2.18495063113
369 1 4.35359243478 1.71326691561 0.000102391811044
1025 1 9.99320186628 1.79324644612 0.160719354499
1065 1 8.56666353911 1.53413139679 2.16868646323
1023 1 9.96482540225 3.54835293137 2.41270058895
1393 1 11.3604798176 1.57367524523 2.15892412695
1353 1 12.7987245121 1.8160150121 0.189120387869
1721 1 14.1979494989 1.59233948922 2.17508973164
1351 1 12.7809271196 3.56878635623 2.42614425144
1681 1 15.6133592742 1.82221596294 0.218474506272
2049 1 16.9916027256 1.60058298018 2.23696493733
2009 1 18.4385752781 1.79501677476 0.212361470643
1679 1 15.6043845677 3.59177178028 2.4559727599
2007 1 18.4609879265 3.5457497632 2.49196524371
2377 1 19.6896818776 1.50075010403 2.22487596315
2337 1 21.371659868 1.37525904285 0.168382371478
2335 1 21.2689704694 3.30877111341 2.56624806938
2477 2 21.74451864 0.778538522542 2.6054244916
2767 1 22.3846897778 3.49892198089 0.399583561465
2336 1 23.627541345 2.46779909729 2.82364701713
3032 1 25.9801289284 2.86787489709 1.92726905057
2665 2 25.1005510812 0.876440284598 1.78320030117
3360 1 28.5171504572 2.46813781984 1.52290741066
3321 1 29.9740792071 0.512732120257 2.03372510843
2993 1 27.3168372982 0.430589442177 1.96026138779
3649 1 32.8005447709 0.500165069577 2.08234513255
3688 1 31.3675388291 2.51022908487 1.81835350381
4016 1 34.2017530279 2.48695392511 1.88778034609
3690 1 31.4144286417 0.233627087453 0.0566555334454
4018 1 34.2005012477 0.244172027313 0.0896023188613
3977 1 35.599086641 0.471465029384 2.10887988344
4344 1 37.0086747048 2.46838076799 1.91452811735
4346 1 37.0015809581 0.247937769507 0.11113077251
4305 1 38.4090648421 0.453961095609 2.1070127104
4672 1 39.7920710776 2.46395875778 1.88327858637
4633 1 41.1705449955 0.450463754769 2.1078893963
4674 1 39.8284643336 0.253809600491 0.0894200483579
81 1 45.3089909807 2.19382274195 1.92318636499
5000 1 42.6075907301 2.40810757561 1.87498933193
4961 1 43.9696341939 0.337640362165 2.09820714608
82 1 45.50597678 0.214436319988 0.118131856941
5002 1 42.5800913401 0.226334424931 0.118015148618
36 2 3.27599104257 5.63337568547 2.78278734643
77 2 0.265729828982 5.59109961044 2.2972277069
366 1 4.44564497633 5.73618689531 0.571828608261
694 1 7.13277606186 5.74925659805 0.604664514011
733 1 5.75268471473 5.48804925745 2.62181484104
736 1 5.74583787568 3.72506548534 0.275326614188
1022 1 9.97467738401 5.79545159945 0.643093319887
1061 1 8.53382150106 5.5233528119 2.62022579846
1064 1 8.57855313715 3.78756991985 0.382029697699
1389 1 11.374697538 5.55282890703 2.64126293252
1392 1 11.3911756044 3.80730102788 0.420178863989
1350 1 12.8119308715 5.82327126626 0.67218452777
1717 1 14.2154256714 5.56605345815 2.64595460321
1720 1 14.2230452249 3.83742148939 0.457564426443
1678 1 15.683265465 5.84652789117 0.702477420952
2006 1 18.5105609019 5.77138607086 0.72438589828
2045 1 17.0757635769 5.55493447094 2.68883058133
2048 1 17.0548752034 3.80858885165 0.484428856868
2376 1 19.9069387402 3.70836557268 0.492402030024
2373 1 19.9403609433 5.43537691912 2.72743433096
2387 1 21.4114027125 5.75803798567 0.724706441301
3029 1 22.7850877931 4.99072106255 3.07526167842
2722 2 23.4445791352 6.70523451867 1.87139553609
2663 1 24.1976918377 4.61540742302 0.986485792396
3028 1 25.9820626529 6.51478326643 1.48442337513
2702 1 25.3522488846 4.81455143452 3.05786486811
2986 1 27.5804291809 4.71011575891 1.83831206861
3318 1 29.9643330126 4.50645502273 1.60203910878
3356 2 28.690362281 6.75714425145 1.47655650074
3023 1 27.1990431508 6.66965649365 3.54872792983
3314 1 30.0753170681 6.77148806028 3.50672425751
3646 1 32.7868907768 4.49141266899 1.65313640828
3684 1 31.3893469818 6.49572034789 1.44987409024
3642 1 32.8217639433 6.71412461905 3.46222061445
4012 1 34.2020648498 6.47940294691 1.44066330573
3685 1 31.4083794623 4.73738004722 3.65508752362
3970 1 35.6164205269 6.68535965963 3.46745889014
3974 1 35.6024261942 4.47458793976 1.68183457249
4340 1 37.01070084 6.46541473692 1.46706607117
4298 1 38.4131734231 6.6659591146 3.47662161589
4302 1 38.4215687503 4.46591120735 1.70803081524
4630 1 41.2414512544 4.44116117286 1.70086314949
4668 1 39.824496762 6.45076245846 1.49811772566
4626 1 41.2249562073 6.71242432326 3.50472887162
4958 1 44.0553646635 4.33094351637 1.90858199842
4996 1 42.5384085813 6.46535089738 1.54103811372
4954 1 44.2100643864 6.8450077155 3.32798515104
35 1 0.337840919381 7.43203549973 0.988210560599
70 1 1.55904244924 7.4230380179 3.05788587432
38 1 1.70103224463 9.59904473257 1.08899364654
404 1 3.0195445796 7.61157946415 0.93183556737
392 1 2.87966655322 9.46725610628 3.21863823868
362 1 4.41036176994 7.56944976564 2.94086045911
361 1 4.27934141494 9.69740300527 1.2462155083
689 1 7.20979519008 9.76602116463 1.18173524011
690 1 7.12842650303 7.5200085777 2.87444328917
727 1 5.76945598922 9.52731410794 3.19942029449
732 1 5.7692183042 7.76227269999 0.864959067986
1017 1 9.93690044186 9.75949533766 1.0903518751
1018 1 9.96137846829 7.5424413186 2.8583668761
1055 1 8.56980526951 9.5237955674 3.11902668331
1060 1 8.53860913409 7.75839262233 0.855326759523
1383 1 11.3818846051 9.55068871899 3.07694573061
1388 1 11.3893159755 7.8216367634 0.884614556855
1345 1 12.8110229587 9.83993238003 1.13680190659
1346 1 12.7695420598 7.54675776973 2.86875111887
1711 2 14.2210648757 9.33541986598 3.07815862567
1716 1 14.2217663464 7.81712246083 0.919055802504
2002 1 18.5338962305 7.50463357974 2.96187106912
1673 1 15.6455480822 9.78700502913 1.16874041528
1674 1 15.6700362719 7.52366389376 2.90968824722
2039 1 17.0843112357 9.52319789295 3.15067264354
2044 2 17.1479647473 7.90271148777 1.05900568084
2001 1 18.6002174021 9.94308944753 1.26862974655
2759 1 21.349776421 7.33734554736 2.93779506032
2334 1 19.9049553553 7.78432897342 0.956932082024
2367 1 19.9891327394 9.36834470475 3.31623580465
2372 1 22.6333668121 8.19447687314 0.483270618568
2329 1 21.1643114674 9.78642058863 1.30084296187
2323 1 22.9985025056 8.94918060194 3.2922446071
2421 2 23.4037074064 10.1951616558 1.1971787266
2059 1 24.8289920291 8.55812318105 1.52971351327
2657 1 26.0422813326 8.87013531212 3.44468019256
3022 1 25.9095831827 10.5826480841 1.09244068606
2643 1 24.417697857 10.8589739333 3.18783447159
2979 1 27.3408168432 10.7691316114 3.07110980024
2985 1 27.2386631321 8.56117502624 1.23768164778
3307 1 30.0493252191 10.7222098427 3.03945723631
3313 1 30.0696607787 8.55983178648 1.23584345828
3350 1 28.6531130105 10.5333145226 1.00159158261
3351 1 28.6391449573 8.70840863756 3.28178495385
3635 1 32.8754299616 10.7174813272 3.03295960251
3641 1 32.8162829039 8.48465626054 1.24178206718
3678 1 31.4616723937 10.5080400163 1.01120109953
3679 1 31.4569727601 8.74079949199 3.2731725517
4007 1 34.241845724 8.70183070322 3.24939141541
4006 1 34.2562647205 10.4779872772 1.01067213939
3963 1 35.6536901019 10.701639481 3.03090310536
3969 1 35.6352391828 8.47393391306 1.24195681368
4334 1 37.0485573395 10.4786714042 1.01119414854
4335 1 37.024862573 8.68625571537 3.25422479508
4291 1 38.4163181195 10.7013263332 3.05108107526
4297 1 38.4240217611 8.46485604718 1.2436299764
4619 1 41.1589478905 10.683668585 3.08368634326
4625 1 41.1377776159 8.50023230199 1.31511622319
4662 1 39.7889296749 10.4996249695 1.02688733543
4663 1 39.7822019197 8.68420308281 3.29523826192
33 1 45.6080875958 9.1144668005 3.16599573281
71 1 43.8719399978 8.55172907449 1.30618924393
4953 1 42.48499018 10.4981626538 1.05527228591
4991 1 42.6371208552 8.73916167081 3.29657489572
129 1 45.2311631858 10.4792658817 1.05729189977
4946 1 43.9627518274 10.8418278478 3.07052216421
398 1 3.06491964784 11.7655173354 1.30392426928
26 2 1.95883264071 13.7838228057 1.93700701608
128 1 0.893191755495 12.4035611129 0.600648276143
399 1 1.36130074163 11.2646938205 3.03485612367
354 1 4.49456978702 13.8203620145 1.65955343143
355 1 4.35339080438 11.4605174714 3.38157053472
682 1 7.19999300725 13.7760116747 1.55824678655
683 1 7.18361664838 11.5269682701 3.33820209735
726 1 5.77006061703 11.7700123803 1.38056782022
719 1 5.79682622197 13.4946739996 3.61895404466
1010 1 9.97283503519 13.7866511817 1.54132802189
1011 1 9.97102760489 11.5269620282 3.28869143249
1054 1 8.56254804724 11.7853143283 1.29691448822
1047 1 8.58779262262 13.5415017522 3.54113361511
1382 2 11.2270114492 11.7683951625 1.2882110193
1375 1 11.3959835398 13.4735989966 3.52520751209
1338 1 12.7670611447 13.7215493227 1.54152894907
1339 1 12.8323394083 11.4774996251 3.29775816141
1710 2 14.3234708943 11.8703737672 1.22559125366
1703 1 14.163438267 13.4756678413 3.51672882818
1666 1 15.554364192 13.7946871911 1.5418825497
1667 1 15.546297321 11.4536749744 3.32585408315
1994 2 18.1117903465 13.9057721437 1.45697764389
1995 1 16.9366844314 11.7755444005 1.40004475485
2366 2 18.404431389 11.4265586364 3.4412265871
2031 1 16.9056816866 13.4678711496 3.5045712832
2688 2 21.664003405 11.0001379521 3.55875832756
2359 2 20.3875586453 11.8303282727 0.644392987636
2679 2 20.6321846535 14.1505681714 3.5366048141
2694 1 22.8826463947 13.0182265071 2.84595488129
2642 1 25.9200078705 12.7126470343 2.76021492196
3014 1 25.8022686301 14.4652766233 0.60718694078
2382 1 24.3158816782 12.4525321882 0.863954474163
2978 1 27.2457330835 12.5274092375 0.771912014419
3306 1 30.0679505523 12.5018249923 0.796737214774
3343 1 28.6649032415 12.7577673275 2.81235906947
3342 1 28.6499542888 14.4926702337 0.561750396127
3634 1 32.8884415993 12.4837476407 0.795344829462
3670 1 31.5032198793 14.4668141531 0.567748840392
3671 1 31.4898180057 12.7001384531 2.809535142
3998 1 34.3127220456 14.4828299161 0.582985014177
3999 1 34.295292709 12.7192273311 2.80860597528
3962 1 35.6852238964 12.4900736885 0.790173794283
4326 1 37.0861065389 14.4975992456 0.581533078315
4327 1 37.040425859 12.6933739286 2.81834727322
4290 1 38.4351264767 12.502277005 0.794008889647
4618 1 41.147457026 12.5245988933 0.779651346595
4654 1 39.7806150604 14.527605228 0.562649055647
4655 1 39.8131542517 12.691752923 2.82748487867
63 1 45.289249362 12.8436443239 2.72113106698
4938 1 42.4453643762 12.7128073851 2.81839756447
4990 1 43.8040893598 12.4390254632 0.803455515891
4982 1 42.4792967881 14.5263284032 0.528523515973
125 2 44.9890321067 14.2621833722 0.466276807652
390 1 3.03957823665 15.8728150854 1.95981256673
17 1 1.35180361615 17.9558198619 1.87763220397
382 1 3.1373004163 17.5699493905 3.6421690178
83 2 1.823881731 16.1954847209 0.00345373664529
345 1 4.53285584775 17.8550849382 1.87978706633
673 1 7.26342216074 17.8386132068 1.90658804449
718 1 5.89767667909 15.826907058 1.70360918009
1001 1 10.0236295171 17.7928928737 1.96028095651
1046 1 8.61008869643 15.7829249514 1.75876286544
1374 1 11.3875284697 15.7531567391 1.74591640386
1329 1 12.7647236468 17.7757178043 1.95517266824
1702 1 14.1568755264 15.758191146 1.75605106396
1657 1 15.5398978383 17.808690507 1.99050177923
2030 1 16.8926570228 15.844240419 1.753577543
1985 1 18.5184401292 17.7246955801 1.95148009933
2214 1 16.9809783409 17.9946390023 0.0292707677205
2869 1 19.7479200215 15.5530724776 1.71395170347
2313 2 21.1528311007 17.3041357601 1.64966766605
2678 1 22.2391610551 15.6035165261 2.88291969509
2381 2 23.2953272153 14.6380623982 0.962414946321
2866 1 24.5786133248 14.742259884 2.7452146957
3006 1 25.8531010019 16.8169345595 2.44126125374
2641 1 24.3761854602 16.4629428267 0.246793519561
2970 1 27.2460386819 14.771776439 2.58149964423
3298 1 30.1198143097 14.6852974995 2.57034141823
3297 1 30.1207623924 16.4451098814 0.329717011927
3334 1 28.7633793064 16.6398642581 2.30801293831
2969 1 27.2062794777 16.4638178491 0.364045086642
3626 1 32.9054399319 14.7033452334 2.58737305605
3625 1 32.9211283907 16.4604568638 0.360506286353
3662 1 31.521341494 16.6895684107 2.36493350445
3990 1 34.3225139194 16.7087260243 2.36982973112
3954 1 35.7224334471 14.7337729129 2.58763846101
3953 1 35.7292677948 16.488777312 0.369584394532
4318 1 37.1386858939 16.7266840836 2.34776961203
4282 2 38.4376974372 14.6318573105 2.69663686924
4610 1 41.1144991859 14.7440381463 2.56768813283
4646 1 39.7374271899 16.7411189162 2.33514767782
4609 1 41.1521939531 16.5444088923 0.333545165534
4281 2 38.44049788 16.4966805852 0.147485403283
27 1 43.7850215372 14.682446836 2.53760011782
62 2 45.1160228879 16.5700975578 2.53041903844
4974 1 42.5025744896 16.7165381335 2.33358645994
4937 1 43.9310606119 16.4951411976 0.317106197521
573 1 2.96016732006 19.7806631664 2.06049532966
244 1 1.70085355099 21.8350701064 2.31887166646
245 1 0.0793526929756 20.1458384997 2.08059203299
205 1 1.43765384576 20.1196738903 0.0556868523783
861 1 7.22090316131 20.0656556788 0.11534580233
901 1 5.8510623141 19.8541802704 2.11510302571
859 1 7.24569612209 21.8290172962 2.37537380629
531 1 4.38858093145 21.8044793316 2.33815893539
533 1 4.37467903569 20.1023008863 0.0959620823958
1189 1 10.0424343253 20.0491796328 0.159796585949
1229 1 8.64471284448 19.8283756821 2.15381715792
1187 1 10.0514920952 21.8168464204 2.41588216922
1557 1 11.4161044099 19.8052025836 2.18639531073
1517 1 12.794037579 20.028955942 0.165682306969
1885 1 14.1442955745 19.8022767765 2.1745051121
1515 1 12.7957875879 21.820828574 2.41745161585
2213 1 17.0058606566 19.7714309309 2.29438286994
2172 2 18.891902994 20.5583097911 3.47263665748
1845 1 15.6302739646 20.0262286497 0.234612620035
1843 1 15.5419524135 21.772938355 2.46491663104
2173 2 18.3230160665 19.8546732998 0.300325530788
2828 1 20.5566117427 19.7476198278 1.54608166046
2499 1 20.934777904 21.5342722826 3.20085180549
2494 1 22.1027943397 21.9107650052 1.09564243277
2500 2 24.2041526563 18.4688497374 1.65984809815
2868 1 23.1094640396 20.3309403001 2.37321976946
3196 1 25.9370164709 20.4608588554 1.94973362835
3198 1 25.8433027088 18.4523511668 0.0906787821278
3526 1 28.7410042262 18.4213361939 0.0808191662599
3157 1 27.5324691038 18.6523144399 2.05994289134
3485 1 30.1466838187 18.6707952828 2.13443096173
3524 1 28.8225732439 20.6582177492 1.90295917599
3854 1 31.5423203226 18.4387630464 0.137817048296
3813 1 32.9252226801 18.6980761695 2.16353011928
3852 1 31.5555291527 20.6881223589 1.94426425806
4180 1 34.3061475872 20.722002378 1.94935322489
4182 1 34.3215284949 18.4705766528 0.156363935563
4510 1 37.0777245052 18.5091177105 0.157533040674
4141 1 35.7192569206 18.7138734762 2.16379099957
4508 1 37.0262950962 20.7858926016 1.94652807048
4797 1 41.1582933409 18.7319582837 2.14319270066
4469 2 38.4374935738 18.8611092397 2.23940133186
4836 1 39.8366820085 20.7723565233 1.94670827765
4838 1 39.7932124248 18.5328551467 0.144604647486
246 2 45.2004586467 18.5726203238 0.104393863861
5125 1 43.9413207741 18.6496784726 2.15910114119
5164 1 42.6291941355 20.7133654445 1.95625371445
5166 1 42.5882565608 18.5360205849 0.163604648276
5191 1 44.0853876649 20.561687207 0.0444630130065
569 1 3.0495982682 23.8115282491 2.65473465658
627 1 1.57379296571 24.1077107935 0.663274762162
5122 2 0.494889066355 23.6686980852 3.18630180825
572 1 2.88321712129 22.0849240977 0.267761322926
530 1 4.42067927209 23.9860266234 0.627621654879
858 1 7.23348375008 24.0123955115 0.61155085428
897 1 5.82280156435 23.8042207819 2.64343319287
900 1 5.81108066366 22.0332745814 0.3473157584
1228 1 8.64460483646 22.0323117357 0.377360968016
1186 1 10.048899674 24.0363422868 0.613124207274
1225 1 8.65428799143 23.8116111536 2.63479788734
1556 1 11.4315159627 22.0442234981 0.393905633335
1553 1 11.4251467153 23.8276788715 2.61499477492
1514 1 12.8366153446 24.0308913997 0.634526691287
1881 1 14.2102965343 23.8032729834 2.66435909805
1884 1 14.2067596434 22.0137188891 0.423953740303
2212 1 17.0643984485 21.9916420359 0.550189988863
1842 1 15.5653370084 23.9736309138 0.636031605177
2170 1 18.2154575169 24.0414872288 0.67461001841
2209 1 16.8115535425 23.7994909126 2.68320740118
2171 1 18.9207928777 22.8259878678 2.67368734849
2540 1 19.7996535803 22.0875945743 0.43665417768
2495 2 21.184601688 23.6198148578 2.07617705814
2923 1 23.6203992008 24.231070222 1.51780925832
2826 2 24.3812174817 22.058086553 1.71216056672
3192 2 25.7316820779 25.0912688623 1.39373278464
2860 1 23.1201535522 23.076634715 3.54999532439
2822 1 25.8882437307 23.3713376116 3.25088262381
3154 2 27.53651375 22.4717564971 1.56624584283
3478 1 30.2325647037 24.9416552346 3.5056843869
3482 1 30.2189623698 22.6434899902 1.68532227532
3520 1 28.9739436133 24.6803570635 1.37926027106
3150 2 28.0188471577 24.994530928 3.32796230163
3806 1 32.8588965595 24.9680788904 3.53754654297
3810 1 32.9365713974 22.7245070404 1.72256469999
3848 1 31.5535470854 24.7108123013 1.48579527134
4176 2 34.27286391 24.8541913302 1.59591798877
4134 1 35.6693104107 25.0018073391 3.53548027626
4138 1 35.634406895 22.7677364216 1.71812310314
4504 1 37.0250492167 24.774961112 1.50436103794
4462 1 38.4474330673 25.0190156472 3.50455723387
4466 1 38.4259742094 22.7738342013 1.7225314486
4790 1 41.1870557145 25.044140932 3.49136231961
4794 1 41.1882870089 22.7422006937 1.71562214159
4832 1 39.8367021552 24.7820842532 1.48638819693
5190 1 45.6264995675 22.3731492896 0.0527002262627
242 1 45.2068299212 24.8711163512 1.5036325035
5160 1 42.5032341966 24.8151848086 1.49071764275
5161 2 43.7192964762 22.8865377352 1.5884547787
5118 1 43.8904832207 24.8912284883 3.48357922465
198 1 1.66293666974 25.6843736087 3.06132777809
568 1 3.14831860524 26.070966389 0.976180809135
563 1 3.0338738508 27.8147705447 3.08912778308
197 1 0.912277455083 26.931485908 1.22728028773
293 2 2.57839985442 28.64212179 0.907638685005
526 1 4.42514064132 25.8138492792 2.94186924527
525 1 4.65989119719 28.0074816993 1.05298199633
853 1 7.28619075265 27.9754294333 1.05848547216
854 1 7.24990660211 25.7873071581 2.8790790766
891 1 5.8793594391 27.7698829005 3.11489690571
896 1 5.83835301888 25.9790040926 0.866244404331
1181 1 10.0608247682 28.0312916286 1.06498820442
1182 1 10.0516911253 25.8189565344 2.85477949524
1219 1 8.66511067628 27.7967400698 3.08730205435
1224 1 8.65598039361 26.0082998736 0.847228216312
1547 1 11.4448351359 27.8299314588 3.08280629399
1552 1 11.4613552111 26.0394826998 0.846688389225
1509 1 12.8268918304 28.0675532444 1.06393253368
1510 1 12.8238493543 25.8278950009 2.87205187866
1875 1 14.1787076739 27.8637578043 3.10101444309
1880 2 14.2008085842 26.0542802527 0.847688900169
2166 1 18.2465332458 25.7880307962 2.90186303897
1837 1 15.577398725 28.0772797366 1.07900371413
1838 1 15.5264733558 25.8390209419 2.89617913117
2165 1 18.1106381111 27.8861254762 1.0655593584
2203 1 16.8831854293 27.8207801835 3.16249147729
2208 1 16.8514547805 25.9855687798 0.872426114063
2536 1 19.6714188013 25.8881784146 0.932759939814
2589 1 19.5599082021 28.0554996313 3.16238742399
2487 1 22.5631991748 27.8621857482 3.13355836446
2814 1 20.8821687413 27.9475540828 1.06420840476
2551 1 22.1734136555 26.0430972936 1.43615312305
2531 2 20.7152625976 26.2313431636 3.09878857311
2859 1 24.3509638389 25.7662012904 3.36837666302
2851 1 22.9578614659 28.8474975077 1.04437506263
3186 2 26.2476335827 28.6403180528 0.714372641094
3251 1 24.3968927874 26.8682994776 1.14946087009
2488 1 24.9830636737 28.5610235279 2.65076800569
3149 1 27.367575853 26.7045223236 1.40619230917
3471 1 30.0890315098 29.0027405034 3.00617233731
3477 1 30.221262771 26.771223692 1.2615611785
3514 1 28.7617876019 28.7002797233 0.95761834327
3515 1 28.7752655596 27.0665864861 3.29050960347
3143 1 27.393702198 29.2127032474 2.83123367334
3799 1 32.852747214 29.0072498638 3.04775123872
3805 1 32.8715315416 26.7641721822 1.26409535137
3842 1 31.5247644597 28.7959759325 1.03437108896
3843 1 31.4931632849 26.9910194075 3.28079894117
4171 1 34.2456045468 26.9947643273 3.28989287624
4170 1 34.2394277252 28.7751152375 1.03163955103
4127 1 35.6310295187 29.0095235314 3.06514618831
4133 1 35.6601472182 26.7959017756 1.28577929331
4498 1 37.0473192511 28.790683233 1.06830208431
4499 1 37.0521107983 27.021796435 3.30407363972
4455 1 38.4506777597 29.0360532792 3.10671078373
4461 1 38.4461587937 26.7918776043 1.29514718601
4789 1 41.2269274684 26.8306151317 1.30908687954
4826 1 39.8530432329 28.8219474909 1.10074743976
4827 1 39.847932988 27.0607791933 3.31351157544
4783 1 41.3064402316 29.0623450939 3.1573603328
241 2 45.2132386533 26.7794040748 3.29277323669
240 1 43.8976469404 26.8204088413 1.30801094523
5154 1 42.6177547516 28.8481979945 1.15592804714
5155 1 42.6626364879 27.055364907 3.34623364244
289 2 45.1320899193 28.8066605361 0.818567208409
235 1 44.2950709114 29.1413626784 3.17183540915
227 2 1.62805929392 31.4654443133 1.66118154724
555 1 2.98141610249 31.5088085371 3.47063681347
190 1 0.00347147494087 32.8384182844 0.726622539468
518 2 4.71371502554 31.7822671544 1.55995359779
519 1 4.6447412881 29.770495482 3.30538823751
846 1 7.31887823306 32.0461145235 1.48644262968
847 1 7.31752774406 29.7854900099 3.34858813176
890 1 6.06337977115 29.9804811013 1.29148270542
883 1 5.91551587455 31.8125235245 3.52071273278
1174 1 10.0430636639 32.0745907001 1.48534998933
1175 1 10.0488897737 29.832761849 3.30344137823
1218 1 8.67141432648 30.0287821398 1.28939766241
1211 1 8.6540239158 31.8505993183 3.50104842438
1539 1 11.4045423779 31.8713694524 3.50866674558
1546 1 11.4397456789 30.0624970316 1.28019325266
1502 1 12.8036785331 32.1011645679 1.49300716046
1503 1 12.801681891 29.8636192794 3.30708951849
1874 1 14.1939977323 30.0814389537 1.27698556524
1867 1 14.165454185 31.896180985 3.51381867424
1830 1 15.5624844124 32.1144512167 1.48915446495
1831 1 15.5535288856 29.8860823782 3.30338620983
2158 1 18.389571385 32.1154123782 1.47185507876
2202 1 16.8914623613 30.093129711 1.28731084292
2159 1 18.2241740818 29.9710430179 3.3523039368
2195 1 16.9206396535 31.9619255055 3.49984854357
2530 2 19.2931753451 29.6882928797 1.35649303315
2486 2 20.8982390222 32.2168853052 1.45668302281
2858 1 21.0663824105 30.2827409987 0.0685831383523
2843 1 21.1561839396 30.0290830304 2.94748178642
2523 1 19.6310513573 31.9951136268 3.55029881525
2703 1 22.240000883 32.2891061755 3.3323912667
2850 1 22.8472516083 32.5065453718 0.443688766637
2815 1 25.9600246881 31.1749146536 3.05924059283
2806 1 23.6347553625 30.2974094304 3.15305351004
2836 1 24.4369715319 32.6852203512 2.30406476797
3179 1 24.7715248429 30.627258783 0.997154283558
3178 1 26.038506921 32.6422966421 0.519338396318
3142 1 27.4502613655 30.7383364722 0.704433806717
3470 1 30.0364763304 30.7427933948 0.653718479465
3507 1 28.7795170269 31.0677269377 2.70666337318
3506 2 28.7209651941 32.8436198764 0.616509707687
3798 1 32.8421871259 30.7943648044 0.767590395698
3834 1 31.4261097275 32.7699502381 0.515354104753
3835 1 31.4115127064 31.0098744967 2.75796740766
4163 1 34.208195942 31.0153840224 2.78658707265
4162 1 34.2304511033 32.7938252248 0.560215458734
4126 1 35.6332425944 30.7831897325 0.794621561003
4490 1 37.0145577664 32.8008040267 0.584655295966
4491 1 37.0133998085 31.0148185284 2.81755533131
4454 1 38.4320431392 30.803696047 0.843103573602
4782 1 41.2570629979 30.8359146699 0.901400010927
4819 1 39.8536187826 31.0161254495 2.86854386035
4818 1 39.8239426415 32.8096724834 0.62154288777
234 1 45.679812984 31.3516136842 3.17380588498
5111 1 44.0368880757 30.8771833604 0.914538730723
5147 1 42.7485453908 31.0453311655 2.91784229446
5146 1 42.6689056579 32.8441334603 0.711362035488
554 1 3.11848638184 33.4517672519 1.37575548038
226 1 1.47432555875 33.407143397 3.15800024998
247 1 1.35642566381 34.9347651087 0.679270960324
546 1 2.74690946089 35.5317945737 3.35083910356
509 1 4.21078857999 35.7074866362 1.45793525726
837 1 7.19242726339 36.0635558729 1.92445522481
882 1 5.88521835936 33.9883094648 1.66084151766
510 1 4.32502890029 33.6625887818 3.50106307074
1165 1 9.99340284271 36.1155411124 1.93609780536
1210 1 8.64035694576 34.0873768885 1.70700129691
1538 1 11.4030670465 34.1146093877 1.70940807172
1493 1 12.7776238414 36.1391719893 1.9463426255
1866 1 14.1746310668 34.1329587479 1.72350071706
1821 1 15.5749215463 36.1416509577 1.97525476554
2149 1 18.2474652106 36.1244941375 2.04297045422
2194 1 16.9470801113 34.0931999906 1.74949118532
2522 1 19.6791217862 34.2237401206 1.79153646444
2378 2 19.6262785577 36.2358446334 0.113898380012
2913 1 21.4914053732 34.7769374882 0.190710385867
2798 2 23.1929041985 34.5035573016 2.14879889882
2706 1 23.2354435417 36.4983552648 1.09395864164
3170 1 25.6678711482 35.0662495293 2.17629601386
2842 1 24.3021839535 34.3107617328 0.0770392318058
2705 1 23.6564959983 36.5153152997 3.65150793228
3462 1 30.0988594376 33.0633180132 2.550278583
3134 1 27.3029411267 33.0650004521 2.53760675768
3133 1 27.2626285889 34.705748876 0.343348893997
3461 1 30.0654415322 34.7916408327 0.282329306687
3498 1 28.6561455148 35.0362723785 2.28430305883
3790 1 32.7946779917 33.025607339 2.5458695277
3789 1 32.8144996125 34.7897434993 0.302193365481
3826 1 31.4247158171 35.0686333525 2.30249529426
4154 1 34.1929436635 35.0345376126 2.32719806758
4118 1 35.602163423 33.0228089591 2.57127209983
4117 1 35.6039761736 34.8046627476 0.337162574104
4482 1 37.0050287294 35.0214279729 2.33849366139
4774 1 41.2346340199 32.9883990222 2.65371279915
4446 1 38.4168595026 33.013854516 2.60138784744
4810 1 39.8154167367 35.0046256934 2.35010757092
4445 1 38.4200720238 34.8088983208 0.340156027973
4773 1 41.223769045 34.7938428996 0.333856818222
5102 1 45.5603402653 35.0409516561 2.61105341765
5110 1 44.1305672917 33.0939730735 2.69888778606
5138 1 42.5426795837 34.9839623287 2.34891718137
5101 1 44.0858949336 34.8111941512 0.536642772803
40 1 3.15131949673 3.26880342645 4.18210501613
540 1 3.06614764288 1.04570344626 6.24260278611
174 2 0.730896385973 0.76010766728 6.16970778076
402 1 1.87496082726 3.13480849227 6.2145125054
406 1 1.69740459774 1.41238485072 4.22282460419
78 1 0.27742311339 3.63282576324 3.80912228941
407 1 4.37732066864 3.08441996656 6.40133880357
368 1 4.38367999885 1.17780192118 4.22127362172
692 1 7.12770912536 3.06015231903 6.39545007047
696 1 7.10644114046 1.2508014862 4.14734742734
735 1 5.71743424937 1.02245766293 6.20310440898
734 1 5.72819307746 3.24961112847 4.35463588619
1020 1 9.97777814098 3.09368102436 6.3933546606
1024 1 9.98798623383 1.33169810023 4.19101334707
1063 1 8.55216101841 1.08654616335 6.16845393406
1062 1 8.53392888711 3.29060914368 4.38881173285
1390 1 11.3755217671 3.33181842242 4.40688255672
1391 1 11.414467215 1.15634460328 6.18440324287
1348 2 12.7523545416 3.33256113628 6.42846666707
1352 2 12.758692063 1.28544496169 4.06909111197
1719 1 14.0701089945 1.18184635466 6.20210004374
1718 1 14.1531625231 3.36162095167 4.42135406737
1676 1 15.5056169937 3.15191988312 6.42957942413
1680 1 15.5148399276 1.38338283653 4.2177413748
2008 1 18.3920011837 1.38629265637 4.29657559682
2047 1 16.8726578878 1.17051789202 6.21598483884
2369 1 18.3336330838 3.11298228469 6.46431434589
2046 1 16.9787058499 3.36432035278 4.46284872814
2333 1 21.418816063 1.4912867163 4.62357200713
2698 1 19.7582566275 1.13304430817 6.35798963531
2697 1 19.8670392584 3.32290403931 4.58285060791
2325 1 21.245041583 3.06885326348 6.76464643096
2374 1 22.4383212528 0.903887182189 6.7005166637
2662 1 22.9192021299 3.31054808984 5.11156889691
2701 2 25.4189433975 3.14300404588 4.52849804646
3033 1 25.9847497493 0.821208121607 3.86874276657
2704 1 24.374979136 1.33330597413 5.59583983603
3030 1 25.1516275122 3.41054277014 6.75653054334
2991 1 27.5449902783 2.92921508737 3.71441164078
2992 1 27.1262854739 1.69547567499 5.81831837423
3319 1 30.0403560238 2.72792668354 3.79875295595
3320 1 30.012926313 0.978649623704 6.05299525251
3358 1 28.8778980661 3.0979799172 5.91735885809
3361 1 28.5667099825 0.759071061909 4.04542119161
3647 1 32.7948012445 2.71823391227 3.87323908916
3648 1 32.8100709344 0.920936871144 6.10403300899
3686 1 31.4509686384 2.93702393038 5.90463327374
3689 1 31.4023604392 0.725452275421 4.06911138122
4017 1 34.2048626432 0.704352288129 4.11047281781
4014 1 34.2202279998 2.91703667309 5.91348789713
3975 1 35.6186153753 2.6943328048 3.92099099704
3976 1 35.6354267377 0.925909654863 6.12221030426
4342 1 37.0531963873 2.90729817868 5.92126730653
4345 1 36.9986810794 0.69100689354 4.09630527061
4631 2 41.1665416006 2.58810366806 3.81444088255
4303 1 38.4317761398 2.68534985263 3.92027012168
4304 2 38.3911131813 0.814570533385 6.04029033409
4632 1 41.1402792036 0.926511713574 6.11303423252
4670 1 39.7969858597 2.93040512256 5.90877185212
4673 1 39.786785444 0.663761951827 4.10770718839
218 1 45.1866576273 0.642539282768 4.16801148103
79 1 45.2277262523 2.79844030326 5.94736214631
4959 1 43.8304138608 2.64803618673 3.9053737463
4998 1 42.4965624333 2.97484875652 5.89474743621
5001 1 42.5258195083 0.669053085809 4.12388367726
37 1 43.7969503483 0.979232987046 6.1922422177
401 2 0.558849450179 4.97939255056 5.59039673685
30 2 3.27760354852 5.22501324303 6.859449238
393 1 1.36510149025 6.9068048545 7.19516781208
400 1 2.93466949084 7.22057543033 5.02505949881
363 1 4.42503441658 5.29109683454 4.70086994962
691 1 7.12643847126 5.2952124216 4.62330910499
729 1 5.82012555078 5.08652369559 6.6525007782
685 1 7.18685729331 7.09577553508 6.87519766485
357 1 4.38958571527 7.13880478938 6.99593909979
1019 1 9.95376301041 5.31582259694 4.61774556968
1057 1 8.55735853763 5.07979402002 6.62578598089
1013 1 9.96908671951 7.10737407569 6.84804975782
1385 1 11.3382681252 5.1472475047 6.62233590595
1347 1 12.7761050399 5.35611634036 4.6310032288
1713 1 14.1819885333 5.18300550517 6.63602706409
1341 1 12.7703918462 7.16340048294 6.84203683821
1675 1 15.5949212422 5.36826660566 4.64807768367
2041 1 16.9772722227 5.13786702116 6.65882800313
2003 1 18.4681863222 5.32847501096 4.71285362943