ITEM: TIMESTEP
38000
ITEM: NUMBER OF ATOMS
5248
ITEM: BOX BOUNDS pp pp pp
0.0 45.68
0.0 36.5618393957
0.0 36.5618393957
ITEM: ATOMS id type x y z
409 2 3.14984863908 1.31489419935 2.20399901701
41 1 1.44354919103 1.82545746939 0.215279586385
39 1 1.77729046063 3.33087882738 2.14601115055
697 1 7.16090252272 1.68841317581 0.148417897194
737 1 5.77609701081 1.43919707063 2.13701734561
695 1 7.17190848009 3.46049068375 2.35710314452
367 1 4.34909190791 3.4608606382 2.29178146007
369 1 4.31743835866 1.73157543838 0.137351529791
1065 1 8.54582266362 1.46515240853 2.1460220417
1023 1 9.95137887437 3.44439341833 2.3761747352
1393 1 11.3656032599 1.47669410679 2.15490666923
1025 1 9.95863196636 1.68191283135 0.146234440496
1353 1 12.7637198519 1.71173070939 0.162770409066
1721 1 14.1722372552 1.47524567397 2.16762962432
1351 1 12.7848209198 3.4372724155 2.38109117555
1681 1 15.6204077643 1.73285349873 0.160515593065
2049 1 16.8944212149 1.4643523291 2.21460286646
1679 1 15.6298750622 3.45561463552 2.40158670482
2007 1 18.6101553544 3.2837255428 2.33339982218
2009 1 18.5778073692 1.8538471281 0.0281025484546
2149 2 18.89871506 0.645459794839 1.87060582438
2377 1 20.7468313088 1.56969793936 2.98157493934
2477 2 22.0811065165 0.227190275202 1.81469295114
2335 2 21.2290400376 3.59728194121 2.02494753068
2378 1 20.2693098011 0.1038340202 0.104768276038
2337 1 21.6302561602 2.07560491724 0.0384051478065
2336 1 23.1485767033 2.41112081149 1.99059206015
3032 1 25.9147821207 2.44552140777 1.95853268504
2665 1 24.5321124056 0.48153306495 2.20108524905
3034 1 25.8345262771 0.28246131586 0.143571344442
3360 1 28.6349522053 2.49875707815 1.98139391504
3321 1 30.074581363 0.527806893814 2.17094960358
2993 1 27.2512161736 0.482065173656 2.13552202622
3362 1 28.6375265526 0.260928964338 0.145431867424
3649 1 32.9015613546 0.519792860065 2.14065526184
3688 1 31.4620157492 2.49438778711 1.97323528352
3690 1 31.4572554074 0.293277495594 0.165154604741
4018 1 34.2671821561 0.288315494347 0.139130909287
4016 1 34.2796943202 2.52065705178 1.96049099619
3977 1 35.6827837309 0.520684573148 2.15856925672
4344 1 37.0699237679 2.50364014428 1.97867913524
4346 1 37.0134966427 0.278180588761 0.117298453881
4305 2 38.4095518981 0.387341255322 2.04939301016
4672 1 39.7328371962 2.45986949819 1.95833955226
4633 1 41.1687860873 0.427349038774 2.13080407209
4674 1 39.8578613703 0.241542289759 0.115519617659
81 1 45.4578300765 1.84098354357 2.04693486933
5000 1 42.4629415833 2.46775894927 1.89858517681
4961 2 43.6848025576 0.540966971935 2.14999165917
5002 1 42.7337258423 0.0920016633852 0.117361442162
5027 1 44.1190642838 2.11725398586 0.0700152687733
36 1 2.95405553236 5.47267606253 2.50396351797
77 2 0.519370791677 5.2307339933 2.34552139167
408 1 2.91085060005 3.86087636344 0.116224849948
35 1 1.36098679657 5.97787683355 0.414919193035
736 1 5.76487354402 3.68177895737 0.352602703198
366 1 4.36583553893 5.69454823383 0.591837065808
694 1 7.20175035065 5.68182350678 0.630440203725
733 1 5.77352695979 5.46909670844 2.58598982679
1064 1 8.5777286637 3.67716808777 0.373807755301
1392 1 11.3722961806 3.68698347034 0.383116044879
1022 1 9.98931993649 5.68453320262 0.615208789762
1061 1 8.59875252718 5.47052333938 2.62364190601
1389 2 11.3937495743 5.37173644595 2.51385104049
1720 1 14.2142867335 3.6979829246 0.395390268659
1350 1 12.8230635174 5.68398909172 0.606975455353
1717 1 14.1812274411 5.4205072494 2.62878822207
2048 1 17.0878331052 3.71203599191 0.409633955523
1678 1 15.6471806411 5.68603463571 0.644760021561
2006 1 18.4921040298 5.7208892208 0.64927829736
2045 1 17.0984686541 5.34884376757 2.62681354704
2002 1 18.5367150216 7.27372043895 2.9717827061
2376 1 19.9919573344 3.91173990564 0.191732554108
2373 1 19.9776668167 5.37905735946 2.71309459281
2387 1 21.3578272916 5.92210836903 0.672536638575
2759 1 21.4692711823 7.14100554707 3.28807847569
2663 2 24.6498589795 4.25751197139 1.67612752114
3028 1 25.7052688711 6.6078121149 1.50668460282
3029 1 22.9157647281 5.13126911967 3.04024803931
2695 1 24.3564971792 7.13224804554 3.56881202523
2702 1 25.793620815 4.75653668552 3.65026734551
2767 1 22.9660970539 4.21110871968 0.0325208132989
2986 1 27.2470337183 4.53485187279 1.73319538431
3318 1 30.0609307274 4.47365453028 1.74952274847
3356 1 28.6802894443 6.47855524133 1.48710975357
3314 1 30.009955005 6.74430218974 3.5335334888
3023 1 27.3022206911 6.61766027669 3.48787747075
3646 1 32.8449847689 4.50465865454 1.75433801769
3684 1 31.4364763745 6.5102056719 1.5412894508
3642 1 32.8194687618 6.74319154473 3.55284306595
4012 1 34.2308920376 6.51752972713 1.55522608431
3970 1 35.6285112732 6.75328157097 3.56818346447
3974 1 35.6627418867 4.50824270642 1.76747908462
4340 1 36.9875319859 6.53163528331 1.58606001868
4302 2 38.3873161472 4.49516342212 1.58222818188
4630 1 41.1035131229 4.49210611001 1.79184450739
4668 1 39.7284614189 6.50447706325 1.63309219829
4626 1 41.045798996 6.75953287645 3.61848854901
80 1 45.6517977108 3.96907542683 0.188480247695
4958 1 44.0474997181 4.26657481111 1.97510719701
4996 1 42.6233372527 6.45279072046 1.8478490902
70 1 1.55614096248 7.41797663432 3.01364458482
404 1 3.06009061803 7.67855619632 0.915484586293
38 1 1.54954848046 9.53255286498 1.11440109288
392 1 2.92128888384 9.4295156519 3.17742207577
33 1 0.299772382503 9.46267337535 3.34915567127
362 1 4.32814931302 7.45444936633 2.97047695776
361 1 4.40998348421 9.67928988842 1.16123943468
689 1 7.23178706412 9.67148678331 1.14094623989
690 1 7.17924207923 7.46246658568 2.9089823228
727 1 5.77446400304 9.44491806393 3.15239831924
732 1 5.79647595324 7.67632351784 0.920286322596
1017 1 10.0345028794 9.64486760454 1.0888259795
1018 1 10.0350896045 7.44046732337 2.87567105439
1055 1 8.63457634296 9.4410993618 3.09639631228
1060 1 8.62259490689 7.6722606009 0.900897886112
1388 1 11.4290842899 7.66527811934 0.874624466772
1383 1 11.4380244097 9.435836392 3.07988294822
1345 1 12.8584260429 9.64946635274 1.07807298148
1346 1 12.8039337626 7.4347628966 2.86772998593
1711 1 14.2823470986 9.42468460809 3.08265944778
1716 1 14.2277177491 7.67574950992 0.880664807938
1673 1 15.6509935647 9.68124668657 1.08433313288
1674 1 15.609929835 7.33780972422 2.88304586189
2039 1 17.0341888485 9.15194288402 3.26833614001
2044 1 17.0652378796 7.69227069156 0.93276084729
2001 1 18.340731751 9.72206894883 1.18778237998
2366 2 18.4531794585 10.8639198319 3.44946548014
2334 1 19.7726052705 7.74367049075 0.970592562973
2367 1 19.9932698436 9.17168533381 3.27465329068
2329 2 20.8757573454 9.90869123416 1.26822062545
2323 1 22.5554793768 9.34095182864 3.16994871119
2722 2 23.1478157378 7.35411134855 1.7269781549
2059 1 24.5070838596 9.23159739325 1.53932042798
3022 2 26.2086922571 10.4414947946 0.686890615437
2657 2 26.1505924291 8.47664847767 3.30112071585
2979 1 26.9511620675 10.8583973761 3.03192041221
2985 1 27.2856681053 8.46421177674 1.2529939956
3307 1 29.9937213704 10.7646948336 3.10593670533
3313 1 30.0298367267 8.52081078462 1.3109918032
3350 1 28.6622405812 10.5305476811 1.13060422982
3351 1 28.6158990164 8.77352838832 3.29966234566
3635 1 32.7873317214 10.7778018156 3.10750114555
3641 1 32.8160745121 8.53506379477 1.32074936731
3678 1 31.4169897973 10.5504910025 1.08908492683
3679 1 31.4108508124 8.75804110796 3.32915639892
4006 1 34.1913695212 10.5543834455 1.0944253575
4007 1 34.1989536285 8.76310684848 3.3416976695
3963 1 35.570718024 10.7888803243 3.11076338394
3969 1 35.5976604406 8.5401833892 1.33762409875
4334 1 36.9910467847 10.5501196943 1.10920215529
4335 1 36.9542544734 8.80318035264 3.35231555065
4291 1 38.3689220313 10.7859939252 3.1355552908
4297 1 38.3647823004 8.52207868955 1.37641603919
4619 1 41.1714276054 10.7295735401 3.21148388037
4625 1 41.143560835 8.43677633963 1.45051346387
4662 1 39.7815417399 10.4938706619 1.15623860779
4663 1 39.7581203351 8.78857086859 3.37583973428
4954 2 44.5653302523 7.66457562044 3.16588787228
71 1 44.5754113109 9.45853513158 1.41841544912
4953 1 42.4607943969 10.4649201091 1.25569999047
4991 1 42.6218459285 8.77749478152 3.35540432104
398 1 3.01061945357 11.641050831 1.35293505123
399 1 1.54104116519 11.4815862487 3.30530384117
391 1 2.99451359137 13.419048299 3.42413345913
453 1 1.70714560026 13.7306398405 1.33648760893
129 1 0.230794314246 11.5209865194 1.25403758547
63 1 0.0311836634794 13.3509148298 3.06169215189
354 1 4.45707541385 13.6826037447 1.47547433927
355 2 4.38858160967 11.4332962873 3.32842679001
682 1 7.29485536078 13.6762567934 1.51962875308
683 1 7.24064706221 11.450778852 3.31526267907
726 1 5.87092387556 11.6701934579 1.35592297643
719 1 5.83044052904 13.4533807983 3.48713726404
1010 1 10.0799099943 13.6746925892 1.44703497749
1011 1 10.0394610628 11.4523463859 3.29602225245
1054 1 8.67729229988 11.6716451603 1.30248220929
1047 1 8.66967134633 13.4713474573 3.46291971831
1382 2 11.4514384065 11.5540940379 1.36486620815
1375 1 11.4676104385 13.4508984435 3.43049631095
1338 1 12.8275611368 13.6846822449 1.41188585007
1339 1 12.8955599447 11.4254145889 3.27683377234
1710 1 14.2332307824 11.6752374897 1.22065795447
1703 1 14.2241815979 13.4103416006 3.3947582837
1666 1 15.5198463628 13.7698167871 1.31560083315
1667 1 15.7739615639 11.396535295 3.21118192995
1994 1 18.4491036367 13.9002843458 1.49059255288
1995 2 16.9244361989 11.7841966485 0.871585061637
2031 2 16.6870236354 13.680796695 3.19236556738
2688 1 21.0102737553 11.5920003684 3.44432969197
2359 1 19.6381101599 11.8680496828 1.46412709
2678 1 21.3872954585 13.5980694875 1.21494946912
2421 1 22.5861155163 11.3753595897 1.57711407574
2679 1 20.5169601392 14.1127566458 3.30967609895
2643 2 24.4017960621 10.9873942643 3.23619193313
2694 1 24.8604517285 12.1028978434 1.23300164363
2642 1 25.595050994 13.2694423138 3.07550197511
2680 1 23.0687867362 13.2068968117 3.22470971547
3014 1 25.9050553224 14.5232344232 0.634152448831
2866 1 23.677733533 14.2606961029 1.14380594177
2978 1 27.2325720574 12.5427801925 0.846226837403
3306 1 30.0121234832 12.5610147438 0.858801446255
3343 1 28.5585284429 12.7071192853 2.86975468951
3342 1 28.6014489231 14.5527715683 0.55002930252
3634 1 32.784480302 12.5731595408 0.863874109705
3671 1 31.3765325018 12.786792748 2.8771530311
3999 1 34.164551775 12.7870205685 2.87184154749
3998 1 34.1806866432 14.5707205106 0.626716873333
3670 1 31.3974476753 14.582239274 0.616204997447
3962 1 35.5913641335 12.5579193524 0.880935778487
4327 1 36.9723884563 12.7888408397 2.88859274358
4326 1 36.9942341396 14.5482893858 0.680797315169
4290 1 38.4119768347 12.539824311 0.894583082084
4618 1 41.1267128616 12.4839033501 0.873180628845
4655 1 39.8012673682 12.7660001641 2.92811099138
4654 1 39.8215274616 14.5487808422 0.68674303658
125 1 45.2075983164 14.3607078707 0.702213342256
4946 1 44.2086069573 11.0959193813 3.20938513567
4938 1 42.4424224828 12.6943354897 2.95289190339
4990 1 43.8184343017 12.4135363247 0.964892359887
4982 1 42.4918896646 14.5097241856 0.6018362947
27 2 43.6129590417 14.5307368306 2.52495830064
26 1 3.05924670089 15.7118981621 1.60259110747
382 2 2.04658963372 17.9028706012 0.925564314943
62 1 0.609165935157 16.3185705467 1.33693465916
390 1 1.594425256 15.3140979565 3.56618398946
18 1 0.767393891839 18.0163087835 3.06397000506
345 1 4.36658775839 17.7275535545 1.80158514213
673 1 7.26849351575 17.7038000062 1.88526603135
718 1 5.88016288973 15.6931680336 1.72106062628
902 2 5.97585610109 17.7568397706 0.00795967438964
1001 1 10.0037140148 17.7151925153 1.82268556939
1046 1 8.69633856815 15.6840847445 1.63408689449
1002 1 10.0675209138 15.4806188542 3.6384001675
1374 1 11.4296475523 15.689465186 1.61109158018
1329 1 12.7707909348 17.7475947636 1.79839490786
1702 1 14.1235743382 15.7651605969 1.5244271133
1330 1 12.8389811752 15.4794580495 3.60954746892
1657 1 15.6545382386 17.7299167666 1.87981390229
2030 1 17.0440034863 15.803473477 1.6927635842
1985 1 18.6649639999 17.8492337679 1.92887993542
1658 1 15.3582602142 15.5702830145 3.55742371324
1986 2 18.9473972503 15.8542158033 3.29408745262
2869 1 20.0576980066 15.7645073547 1.38876723221
2824 1 22.6062761758 15.6994924418 2.68774681958
2870 1 21.875927128 15.8691680862 0.030916096168
2351 1 21.6769351588 17.8898477504 1.75342344205
3006 1 25.4884397364 16.2010749861 2.57533528116
2641 1 24.2381535141 16.5463100436 0.40208949717
2313 2 23.8658507606 17.7468024199 2.65598959439
2970 1 27.4024743465 14.7507416548 2.57634992962
3298 1 29.9491920032 14.7786384677 2.64239014342
3297 1 29.9646300957 16.5647162213 0.411874436768
3334 1 28.5603710756 16.8129110037 2.388491763
2969 1 27.0973534683 16.5351962971 0.441677146559
3626 1 32.7661118702 14.7954883896 2.63039346221
3625 1 32.8115086029 16.5615159991 0.365877873022
3662 1 31.3696037603 16.7878254526 2.39247843149
3990 1 34.1492642959 16.7934082527 2.40992975193
3954 1 35.5497221782 14.7858913101 2.65207128567
3953 1 35.5754406428 16.5499198394 0.449040365431
4318 1 36.9599666615 16.7649403336 2.45608080946
4282 1 38.3974000154 14.7758672017 2.69726575509
4610 1 41.1470993894 14.7725562203 2.713397374
4646 1 39.8109507857 16.7785538578 2.52309026041
4609 1 41.2024314735 16.5831683927 0.51626125144
4281 1 38.4002693782 16.5483277076 0.491855636185
4974 1 42.5966314233 16.7636243076 2.61422430402
4937 1 43.9503070698 16.5057723723 0.646639303372
49 1 45.0372137397 16.0487055357 3.22497164836
17 2 1.68270423195 20.0931454077 3.35332206075
573 1 3.09296460466 19.9096646304 1.50629927891
205 2 1.01180541587 20.605041665 0.0201541500896
901 1 5.74566993108 19.6828797787 1.96680288086
859 1 7.16273350941 21.7149864552 2.19545098255
531 1 4.48540117963 21.7802222659 2.10487269927
1229 1 8.58960804435 19.7338846986 1.99828529965
1187 1 9.96563850634 21.7473577838 2.21556209771
1557 1 11.3808323463 19.7560302496 2.00833421732
1189 1 9.9813256304 19.9725821367 0.0071888076653
1885 1 14.2156502306 19.7375678922 2.01551528073
1515 1 12.7995850012 21.7505726526 2.2156481203
1517 1 12.8152259387 19.9800171631 0.00604752053913
2213 1 17.0978884418 19.7134885873 2.01589388509
1843 1 15.6384211288 21.7290200867 2.18178596351
1845 1 15.6362903119 19.9419123391 0.016536885182
2171 1 18.415739608 21.7913812815 2.08095986728
2212 1 17.0428655937 21.9306635469 0.135964636066
2173 1 18.5621221572 19.9502031987 0.0194297061158
2828 1 20.0870495588 20.0451799806 1.91591083636
2314 2 20.5606312946 18.681032991 3.56881573959
2541 1 21.5015052113 20.1177159501 0.0157589054903
2868 1 23.1059767768 20.2749291969 2.0884703568
3196 2 25.7385456892 20.6639527366 2.08828995122
3157 1 27.1005629146 18.6621722131 2.16355740587
3485 1 29.9514910025 18.7968672642 2.18188153608
3524 1 28.4686079901 20.7386572965 2.0172119259
3526 1 28.5332416252 18.5226134281 0.166801157873
3551 1 29.9699273736 20.5080270909 0.0272231901651
3854 1 31.402687367 18.5398561997 0.206125914815
3813 1 32.7525857439 18.7905736034 2.23400492844
3852 1 31.3772853887 20.7960027356 2.0197377343
4182 2 34.1946191504 18.6447959988 0.324522852253
4180 1 34.188878227 20.7854836568 2.03142833512
3879 1 32.7957810679 20.557540389 0.0282495493446
4510 1 36.9719236538 18.5372801139 0.261702610922
4141 1 35.5828978046 18.7771558113 2.26528599097
4508 1 36.9740741151 20.773202255 2.03383874602
4207 1 35.6075701324 20.5672886686 0.0382638010151
4797 1 41.2115186695 18.762930555 2.33909914723
4469 1 38.3687109385 18.7509798544 2.27567042894
4836 1 39.7457882791 20.7309270668 2.04310231732
4838 1 39.7997165129 18.5606555657 0.29817119309
4863 1 41.1775298378 20.5706278908 0.081128021593
4535 1 38.3649075363 20.5372908909 0.0364764943437
246 1 45.395578996 18.5057162886 0.412017016079
245 1 45.3013786504 20.7245551704 2.20996917471
5125 1 44.0825674279 18.6440474666 2.45861962273
5164 1 42.5827328012 20.734674937 2.07046976869
5166 1 42.6350385513 18.5758470579 0.380747571279
5191 1 44.0455925232 20.5749723296 0.131067733647
244 1 1.63535045501 22.0020610484 2.09896087456
569 1 3.11582977431 23.8163055036 2.36395669406
627 1 1.80768561219 24.1293062062 0.216170350937
5122 1 0.308319744464 23.9068276874 1.86612888967
572 1 2.98645662688 21.9847942985 0.117852001079
900 1 5.85118066634 21.9706524212 0.116295365542
530 1 4.44529056159 23.9663956465 0.343040035877
858 1 7.21757518837 23.9823710306 0.411382637864
897 1 5.82760858569 23.7672351461 2.41082383202
1228 1 8.57079892509 21.9450449084 0.185574524059
1186 1 9.97126677286 23.9669478729 0.435868292573
1225 1 8.55495898785 23.7350067934 2.4515630282
1556 1 11.3893971511 21.9668212503 0.213616534827
1553 1 11.3668259221 23.7487816978 2.45202754038
1884 1 14.2130722096 21.9549494672 0.19767167951
1514 1 12.7940525097 23.9625802239 0.440267402473
1881 1 14.2147875593 23.7429162934 2.44613174326
1842 1 15.6128921639 23.9437180629 0.415313369959
2170 1 18.3949467263 23.9408539967 0.35775074681
2209 1 17.0009597605 23.7629387848 2.43454756102
2540 1 19.9046214274 21.9998775077 0.0890417561581
2495 1 19.8027592608 23.8382444531 2.30488281053
2494 1 21.4448060366 22.1115349359 1.94123931512
2537 1 21.3006573378 23.9812053527 0.171793164361
2923 1 22.8476891203 24.3255379637 2.01413217335
2826 1 24.4179763357 22.5037281687 1.71171744428
3192 1 25.6897941174 24.704189436 1.62722232364
2860 2 23.1305061889 22.4633833712 3.48826708206
3154 1 27.0635512927 22.7361925702 1.84614494663
3478 1 29.9871729214 25.0171865225 3.58370771997
3482 1 29.941769816 22.7584003612 1.8314011112
3520 1 28.5446310931 24.7516366875 1.60951451358
3150 1 27.1230194117 25.0886817258 3.58109274919
3806 1 32.8326633077 25.0243892949 3.56857895045
3810 1 32.810610047 22.7861654352 1.80624086579
3848 1 31.4136453573 24.7645287115 1.59349799894
4176 1 34.2472940143 24.7961344993 1.5677724683
4134 1 35.6247780507 25.0359542035 3.57801041978
4138 1 35.6145970685 22.7840616061 1.79464284219
4504 1 36.9789812894 24.8062067189 1.59269070328
4462 1 38.3833113211 25.0312468572 3.57162962099
4466 1 38.3588550796 22.7592262576 1.79714989169
4794 1 41.0593152394 22.7480476062 1.70813467167
4832 1 39.6674151124 24.7871105793 1.52935960612
4790 1 40.9389155024 25.043998116 3.49472652855
5160 1 42.4965695068 24.8090728859 1.7653891841
5161 1 43.8833936674 22.7841921537 1.8468067438
5118 1 44.5971325688 25.5691161412 2.80025343379
5158 2 42.2317734478 23.0015492582 3.57727891158
242 1 0.361642886858 26.0199454497 0.814421351677
198 1 1.75782993589 25.8044812391 2.71232126404
568 1 3.1730347826 26.0236412592 0.708771173977
563 1 3.10638787097 27.782467453 2.93867657336
197 1 1.74394849282 27.9695863749 0.968905527068
241 1 0.163184152549 27.6951974232 2.96568114033
526 1 4.46863845776 25.7959140424 2.67310100604
525 1 4.49114415068 28.0497196734 0.925715676978
853 1 7.18280217859 28.0188210464 0.881751342859
854 1 7.22438236581 25.7770588243 2.64710150292
891 1 5.84816215764 27.7817662304 2.92987054903
896 1 5.82834207236 25.9960742293 0.653234327286
1181 1 9.97365812523 27.9996582505 0.911092541994
1182 1 9.94170973846 25.7528642674 2.69886290463
1219 1 8.56319715566 27.790985813 2.92112311237
1224 1 8.59067050924 25.9974940306 0.65336182928
1552 1 11.3690225732 25.9707153742 0.682054894149
1547 1 11.3565216132 27.7497521051 2.93295068359
1509 1 12.7636938779 27.9704968043 0.925807053292
1510 1 12.7723948379 25.7362862915 2.69475076782
1875 1 14.1519383183 27.7330134112 2.94780041461
1880 1 14.1868615904 25.9555047211 0.685371760402
2166 1 18.3178119076 25.7577030611 2.68138053337
1837 1 15.5568376724 27.9607315357 0.952307644062
1838 1 15.5930011814 25.7610213429 2.71722017924
2165 1 18.3702911296 27.9370768432 1.04486459579
2203 1 17.0024963029 27.7866266419 2.98552870793
2208 1 16.9460999237 25.9544662872 0.700067746702
2536 1 19.75353293 25.8971675344 0.74053356821
2589 1 19.9811696811 27.5868627119 3.06137077853
2551 1 21.0054039819 28.0055231744 0.960076860614
2864 2 22.3505155364 25.9790972045 0.527000656799
2859 1 24.3670262545 25.6174178514 3.49779582033
2487 1 22.918177189 28.0319371243 3.12351004165
3186 1 26.0782038921 28.91049209 1.36858099974
3251 1 24.4558413683 26.7672765987 1.1782090295
3187 1 25.8923921202 27.2513491289 3.28458569231
3149 1 27.1865079787 26.769033861 1.32090763608
3471 1 30.0982226022 29.0469424646 3.18235679848
3477 1 30.0113483265 26.7511433432 1.36049277004
3514 1 28.7188803924 28.8215554803 1.24668543355
3515 1 28.6254469211 27.0440595454 3.35237435375
3143 1 27.4113077147 29.1373174368 3.2637644317
3799 1 32.8792531262 29.0435813291 3.12401090304
3805 1 32.8565426921 26.78578234 1.34989162774
3842 1 31.4739639485 28.7996912476 1.16605871242
3843 1 31.4520058986 27.0137629951 3.34673865589
4170 1 34.2548193213 28.8126575869 1.08947523761
4171 1 34.2573953838 27.0282367289 3.33766053106
4127 1 35.6500695425 29.0426782512 3.10619797934
4133 1 35.6359575117 26.8132668184 1.34107504426
4498 2 37.0406483967 28.8369054887 1.08954701565
4499 1 37.032386542 27.0382226595 3.37466981932
4455 1 38.4411326342 29.0589887467 3.14398557841
4461 1 38.3765323598 26.8356154175 1.35094241985
4789 1 41.0717259472 26.7478319465 1.37988735866
4826 1 39.7974642495 28.8249561894 1.12881924414
4827 1 39.7793462957 27.0955691479 3.35048692496
4783 1 41.303190757 29.1475303203 3.08647200141
240 1 44.5530015105 27.9765485051 1.00603648621
5154 2 42.4050532515 28.5866770976 1.13537259773
5155 1 42.7838222077 27.0964242353 3.11480905511
289 1 0.336995173439 29.9301476562 1.18967080752
191 1 1.70049230842 29.6612646803 3.1765511494
293 1 2.99431275634 30.0144447426 1.12896394715
227 1 1.61232927961 31.9828109563 1.46412498995
555 1 2.93444115002 31.6843386292 3.53173837119
518 1 4.35283840954 31.9958128811 1.46625378587
519 2 4.44703887548 29.7326247804 3.04402848216
846 1 7.18541107696 32.0425438852 1.4329406405
847 1 7.16425713448 29.8030384981 3.15650612322
890 1 5.80799737975 30.0599128663 1.10484844456
883 1 5.77781929335 31.7936180596 3.42558489987
1174 1 9.966970768 32.0220633599 1.43045926727
1175 1 9.97288740134 29.7773062486 3.16646029019
1218 1 8.57058864847 30.0211537457 1.15581270754
1211 1 8.56345997323 31.765273072 3.42480426216
1546 1 11.3680538613 30.0038413363 1.16599609194
1539 1 11.3757144432 31.7614038755 3.43315530853
1502 1 12.7427541949 32.0219798727 1.43646660623
1503 1 12.7539996717 29.7578200805 3.18883439375
1874 1 14.1273983898 29.9823158965 1.18361997145
1867 1 14.1100281691 31.781334087 3.46274007226
1830 1 15.4893493996 32.0113924366 1.49019299619
1831 1 15.4937120548 29.7110246048 3.20840550936
2158 1 18.2074906327 31.8781924219 1.59903941948
2202 1 16.904805627 29.9379296162 1.23040093084
2159 1 18.4498457561 29.7970255203 3.32920829843
2195 2 16.7382312309 31.6284040154 3.40119974137
2814 1 19.6100867168 29.9546658051 1.30885180983
2851 1 22.36340131 29.9756676795 0.906933403975
2843 1 21.1379515493 29.6481763358 3.18218835275
2530 1 20.9644891809 31.8910532253 1.52778602476
2523 1 20.0584409292 31.8212788874 3.64733303398
2488 2 24.7839678884 29.3733661172 3.46657423099
2850 1 23.2571665987 32.6463728165 1.10041862607
2806 1 23.0631663805 31.0771044299 3.06173281854
2815 1 26.0537695854 31.1621432619 3.01886347498
3179 1 24.6834214332 30.8184835333 1.15484422201
3178 1 25.9272614087 32.7915014597 0.688580983106
3142 1 27.3819202692 30.8869332834 0.91957097828
3470 1 30.1227292105 30.8560226449 0.891035385799
3507 1 28.7751906488 31.1011422658 2.8945519512
3506 1 28.6960074676 32.867251125 0.612782149484
3798 1 32.8467510572 30.8139610713 0.832349847933
3835 1 31.4742440861 31.0653535681 2.86683016627
3834 1 31.4786864078 32.8517936015 0.604340469084
4162 1 34.2535955196 32.8185484017 0.592779017225
4163 1 34.2689015138 31.0444050403 2.81345078118
4126 1 35.6524727348 30.8220735815 0.817786712502
4491 1 37.0561431994 31.0309652714 2.83260979946
4490 1 37.0510149199 32.8135055478 0.584767992699
4454 1 38.4730218716 30.8319662969 0.840574305073
4782 1 41.2352852558 30.8187372373 0.929766908287
4819 1 39.8398039472 31.0280020433 2.88641503537
4818 1 39.8163698355 32.8360424324 0.62668063744
234 1 45.6151221895 31.1793911056 3.14342231223
235 1 43.9968386707 29.3485984879 2.98431612278
5111 1 43.7793337207 30.702336157 0.847421074205
5147 1 42.9094650953 31.7241732443 2.84577281523
5110 1 44.9306157615 32.8092430563 1.58989237529
181 1 1.58414604529 36.1272835377 2.00437768815
554 1 3.03007209905 34.0090423067 1.70701668637
190 1 1.29542944713 34.3314698363 0.10015015255
226 1 1.43987168467 33.5025631519 3.39342550232
509 1 4.38904453014 35.9676990763 1.95770781323
837 1 7.1788302651 36.0015266211 1.93634614017
882 1 5.76651105123 33.9951889061 1.70986974836
1165 2 9.95849597267 36.1224510673 1.83171089635
1210 1 8.59019886123 34.0351636557 1.69066771747
1538 1 11.3315648388 34.0298914677 1.70213279774
1493 1 12.7278718553 36.0257004544 1.94284847283
1866 1 14.120218968 34.0136213202 1.74195923963
1821 1 15.4654380376 36.0122803187 1.93166126861
2194 1 16.8608399015 34.0470379504 1.79478050069
2050 1 17.0920955486 36.3892997311 0.0758698920201
2522 2 19.2271426823 33.7777946673 1.87465033813
2514 2 21.9498397929 33.3675608422 2.97762773965
2913 1 21.6423546791 34.460603712 0.618280201727
2698 1 20.4214671607 35.45280227 2.68124129693
2836 1 24.6344997014 33.0654947076 2.82102703857
2798 1 23.2793748234 35.0342562135 2.46686409291
3170 1 25.8608654383 35.0636191799 2.45529484047
2842 1 24.5583867306 34.7318253831 0.408844974469
3462 1 30.1103674738 33.114053932 2.61855688013
3134 1 27.3645245798 33.1288866198 2.66631355071
3133 1 27.2059059645 34.8357788503 0.362171361053
3461 1 30.0710470373 34.8622236474 0.382868932391
3498 1 28.6910899425 35.1015370109 2.37954345624
3790 1 32.8727705989 33.0736200538 2.60439782797
3789 1 32.8682993394 34.8513702564 0.37881884833
3826 1 31.4896058937 35.1056457912 2.3849527
4154 1 34.2857701105 35.073212045 2.37293249034
4118 1 35.66540065 33.0426822441 2.59894265927
4117 1 35.6466430577 34.824212909 0.356307538354
4482 1 37.0303052695 35.0365084219 2.3669444416
4774 1 41.0517450261 33.0805546677 2.7009178045
4446 1 38.4209835157 33.0356634785 2.60823047811
4810 1 39.8028724659 35.0499392488 2.34678477556
4445 1 38.4366483514 34.8269530351 0.340335253762
4773 1 41.2824631956 34.8039453502 0.349493313547
82 1 45.5930797765 36.5008957471 0.169650802981
5146 2 42.4909402896 32.9104825716 0.854290603872
247 1 45.1170197785 35.1632524752 2.17965762556
5138 1 42.7785535789 34.7742336779 2.49905702847
40 1 2.99136395488 3.14407386726 4.28044043891
540 1 2.95737028175 0.952153841004 6.13881878498
174 2 0.395684067876 1.15120261754 6.4737870806
402 1 1.64501412853 2.97513746319 6.25679068013
406 1 1.57159050077 1.21577313654 4.11331100689
78 1 0.24907869159 3.36060083329 3.90498211596
407 1 4.39216082414 2.95401905816 6.33858370871
368 1 4.40503276106 1.17384228007 4.17563259621
692 1 7.13711552036 3.04643308962 6.36412496429
696 1 7.17776803616 1.20007188951 4.14220065297
735 1 5.76824721061 0.974624398602 6.15964907794
734 1 5.78493787252 3.21204935738 4.3275734031
1020 1 9.95536023959 3.03072862117 6.37614331891
1024 1 9.95316564539 1.23155807596 4.14510495805
1063 1 8.56742209662 1.0198805511 6.15662578895
1062 1 8.56792555869 3.25646646887 4.37184098216
1390 1 11.3523349118 3.24042936244 4.36595191893
1391 1 11.3433919059 1.00934554797 6.156716789
1348 1 12.7399208126 3.0200952016 6.36441487606
1352 1 12.7427324205 1.22140031937 4.14938338134
1719 1 14.1486053169 1.01005338408 6.14888958177
1718 1 14.175383913 3.2308200976 4.37942515411
1676 1 15.6112074659 2.9892394503 6.3547812788
1680 1 15.5928664181 1.24705411566 4.20380500902
2008 1 18.6139863106 1.11870753713 4.25323566357
2047 1 17.0813475323 0.909006216894 6.11685493422
2369 1 18.4170848819 2.93702891322 6.4459671708
2046 1 17.1283515475 3.15818917258 4.36700921944
2697 1 19.8127207137 3.3071995415 4.46559730968
2662 1 22.2167564443 3.14501459645 4.32026189011
2370 1 19.9994222701 0.935705394368 6.53837123719
2325 2 20.9725044537 3.21307944 6.48818178277
2374 2 22.6298778332 0.901914649182 7.11180190377
2333 1 22.9510350939 0.719908133001 4.1988793762
2701 1 24.4669898703 2.72627336843 4.00632225697
3033 1 25.8884926577 0.742531304907 4.19050077185
2704 1 24.6127656159 1.01921429398 6.17892030492
3030 1 25.8428295642 3.04266892023 5.96013007656
2991 1 27.2537398452 2.75248930579 3.99327675785
2992 1 27.3451441155 1.03460187549 6.15679886252
3319 1 30.0533538651 2.67512879955 3.98431832606
3320 1 30.0663972246 1.0162580279 6.11391078126
3358 2 28.6560308436 3.11228842266 6.03486282072
3361 2 28.5424352602 0.656475828942 4.07366430325
3647 1 32.8777271096 2.76448374597 3.97057499188
3648 1 32.8945011936 1.00317946663 6.19825536339
3686 1 31.4607814271 2.98847324076 5.96838695923
3689 2 31.6343487115 0.749681711961 4.16187226956
4014 1 34.2830669382 2.98674905832 5.98040896099
4017 1 34.3006777992 0.761301112151 4.17069896783
3975 1 35.6961598487 2.75919165102 3.96596543084
3976 1 35.6812880418 0.967581357064 6.19420289513
4342 1 37.0309817252 2.99034543246 6.01844781925
4345 1 37.0618890434 0.731891908842 4.16235932188
4303 2 38.3961651169 2.75562254079 4.16197997035
4631 1 41.0515423549 2.70083236687 3.91251533141
4304 1 38.4534490795 0.970205826469 6.18314544598
4632 1 41.0711073688 0.974100432403 6.15509679417
4670 1 39.8113213737 3.02018773267 5.99821106776
4673 1 39.7488164169 0.717537661147 4.10651992564
218 1 45.0150060679 0.735741734041 4.24824552089
79 1 44.942230273 3.20192643832 6.01210069497
4959 1 43.6850732442 2.64222143335 3.88243975286
4998 1 42.3651154089 3.01159626164 5.86404524154
5001 1 42.4866902471 0.608781243107 4.19766492952
37 1 43.7418551493 1.07342334019 6.21367884167
401 1 1.60453266559 5.18269441378 4.52077632645
30 2 3.00729863473 4.77108567868 6.35641397154
400 1 2.92304924323 7.200168802 5.08582266983
363 1 4.33585522624 5.1663404414 4.44107952784
691 1 7.1582026232 5.27159271613 4.59665123417
729 1 5.70656798549 5.09642487874 6.52722086473
685 1 7.17315009005 7.09296316433 6.84459790836
728 1 5.71611664773 7.25064704558 4.90853927673
1019 1 9.99303830088 5.26330722404 4.59258515415
1057 1 8.56213429129 5.05570344566 6.57802928966