ITEM: TIMESTEP
48000
ITEM: NUMBER OF ATOMS
5248
ITEM: BOX BOUNDS pp pp pp
0.0 45.68
0.0 36.5618393957
0.0 36.5618393957
ITEM: ATOMS id type x y z
409 1 3.25858013748 1.44144438894 2.11314915848
39 1 1.42572711357 2.78103919057 2.6814281114
41 1 1.50406382077 1.72831319306 0.00417313373556
697 1 7.1529525782 1.69889637351 0.0256634372573
737 1 5.81172842732 1.45472052222 2.03490853692
695 1 7.09501503993 3.51056408816 2.31024260651
367 1 4.39174531075 3.49431725286 2.27785630384
369 1 4.29148692189 1.76939573849 0.0202594025568
1065 1 8.5159180765 1.4779004158 2.07100073124
1023 1 9.90558408253 3.45994807042 2.29870954382
1393 1 11.3264814893 1.46984206524 2.05117146963
1025 1 9.90579507803 1.66877253972 0.0552111317554
1353 1 12.7396444508 1.68735443491 0.0532283943896
1721 1 14.1715950751 1.4964194286 2.03412317424
1351 1 12.7347919868 3.45501106457 2.27752836952
2049 2 16.8759898765 1.64959070211 1.88436816908
1679 1 15.4937028637 3.54721922799 2.2611275922
2007 1 18.3548538707 3.52875463553 2.20045901306
2009 1 18.5434670077 1.83702739194 0.0681655023566
2377 1 20.1906794424 2.03585321682 1.94613151457
2477 1 21.4358185263 0.114758809264 1.97826982273
2336 2 22.8851507798 2.29089275161 1.7436909544
3032 1 25.7679342161 2.42380199285 1.97150686317
2665 1 24.2536077302 0.477609487738 2.27486036994
3034 1 25.6815183086 0.222647490053 0.199198056793
2706 1 23.0164101195 0.3007392135 0.0796746961009
3360 1 28.5752835987 2.44388551592 2.00763840495
3321 1 29.9497809632 0.466645800683 2.24595980428
2993 1 27.1060626437 0.458221776537 2.24143444762
3362 1 28.537781711 0.249472775103 0.212174442528
3649 1 32.7790663927 0.481022232478 2.24734061834
3688 1 31.3785111719 2.47177438947 2.0146401533
3690 1 31.385072575 0.257438114705 0.220698308196
4018 1 34.191994942 0.261163906954 0.233837933418
4016 1 34.1774946754 2.49632120505 2.02535757647
3977 1 35.5944140182 0.498910226416 2.23889954167
4344 1 36.9866596805 2.51059865826 2.02723250455
4346 1 37.0101079085 0.260003942263 0.226738931158
4043 1 35.5965346762 2.26467327997 0.0227403140809
4305 1 38.3810791271 0.494836392625 2.20112987722
4672 2 39.6746027263 2.52296875786 2.01651554849
4674 1 39.837253771 0.219039318511 0.193348860967
4633 1 41.2185708151 0.557488764689 2.12310048034
4699 1 41.3132194302 2.16607060257 0.110793309527
4371 1 38.4119978596 2.25124892449 0.0212686551051
81 2 45.517481545 1.70808763954 1.49746193022
5000 1 43.1194350021 2.14314310585 1.90087473972
5002 1 42.7106456158 0.100966201003 0.179684191937
36 1 3.16565733241 5.7058179096 2.28531894179
77 2 1.16827245527 4.86970622854 2.12217393144
408 1 2.76143996001 3.75751142883 0.376781239755
35 1 0.995380382476 6.14266329293 0.177719058469
736 1 5.72857861643 3.67360506088 0.26268895344
366 1 4.42889177337 5.64568420051 0.363692612214
694 1 7.07486975417 5.72124369958 0.5484739837
733 1 5.63926469621 5.55176719583 2.56311778043
1392 1 11.3107943396 3.67310668855 0.282528357524
1064 1 8.5006863213 3.69408254474 0.293818224461
1022 1 9.89571144237 5.68030085083 0.504856443895
1061 1 8.53223260319 5.48105676983 2.54963017056
1389 2 11.3206297623 5.38440005971 2.40136905369
1720 1 14.11451199 3.69520144676 0.24790119125
1350 1 12.722208767 5.68197435709 0.47592024643
1717 1 14.0669102337 5.48772080388 2.51507694741
2048 1 16.9239518694 3.71775964685 0.262201317595
1678 1 15.4883754597 5.69329760224 0.497631200429
2006 1 18.2619174009 5.72278204626 0.380136320656
2045 1 16.9436966203 5.52011956341 2.47150439606
2335 1 21.5380861969 4.14320551247 2.07671537545
2376 1 19.8880093585 3.9416295188 0.217734499737
2373 1 19.6367900069 5.57471633015 2.35840274355
2387 1 21.269609879 6.00083108961 0.282709949983
2722 1 23.0394466134 6.39932000031 1.82788025968
2663 1 24.450168594 4.39448028997 1.66877852121
3028 1 25.9859987464 6.3503304493 1.3767312202
3029 2 23.5413907297 5.01688622472 3.54441074673
2695 1 25.1385282935 7.16852925472 3.2775611783
2986 1 27.1890693899 4.38944149222 1.81027400178
3318 1 29.9955846291 4.44804600039 1.80641938446
3356 2 28.6427854564 6.37643410163 1.43176397691
3314 1 29.9491928033 6.7132059893 3.61080689115
3023 1 27.4380435703 6.62787030204 3.41207641224
3646 1 32.7725437626 4.49636928352 1.81795010092
3684 1 31.3635580683 6.48582145871 1.5925696578
3642 1 32.746143157 6.73816277648 3.59984033071
4012 1 34.1747396142 6.51381106577 1.59701681098
3970 1 35.5694854371 6.76870363394 3.5956943455
3974 1 35.584964589 4.51295657759 1.82433392493
4340 1 36.9742646446 6.51333633496 1.60795358114
4302 1 38.3727475212 4.53709230132 1.83767993975
4630 1 41.257152306 4.42914616041 1.93755845195
4668 1 39.8096627781 6.466876498 1.64460053526
4626 1 41.1182741408 6.89009358982 3.62896309384
4298 1 38.3550207279 6.78469199394 3.59252868516
4958 2 43.6857056641 4.45398386753 1.94351324191
4996 1 42.5114526922 6.58296505988 1.67579596586
4954 1 45.078589923 6.13634586381 2.36415830431
80 1 45.5324059327 3.95185452156 0.227341502379
404 2 2.89433468864 7.37751069011 0.414092133071
70 1 1.52020198457 7.52010978999 2.56247711078
38 2 0.531220210717 9.60323434377 2.37679194029
392 1 2.85449230649 9.70202389126 3.15522557146
362 1 4.23436748464 7.67808263783 2.71961508227
361 2 4.52823347341 10.0186133697 1.36061409172
689 1 7.16719375869 9.6934680843 1.04459515161
690 1 7.09729378541 7.48242743209 2.74809092112
727 1 5.81566999089 9.51829033905 3.1317244683
732 1 5.59341409654 7.79266387196 0.703281737432
1017 1 9.92441892902 9.63343368379 0.975078005082
1018 1 9.95111541212 7.44560995277 2.74710336419
1055 1 8.58114470851 9.45038744496 3.00772967952
1060 1 8.51507315657 7.67389269051 0.767470487109
1388 1 11.3204380764 7.65836949372 0.737324996622
1383 1 11.3332077222 9.46279087432 2.97590812085
1345 1 12.7335204529 9.66048244745 0.961279900794
1346 1 12.6984439445 7.46851132753 2.7363819272
1711 1 14.1100971352 9.49341133229 2.98116960319
1716 1 14.0857688832 7.68774042473 0.72492050696
2002 1 18.2295982353 7.58374308834 2.65148874344
1674 1 15.4710218056 7.48602927411 2.71998024883
1673 1 15.4473976057 9.73712847286 0.939850015092
2039 1 16.8222427619 9.50781607984 2.97194576404
2044 1 16.8393390284 7.72037276931 0.678316719017
2001 1 18.108997491 9.76486456476 0.930507348231
2759 2 20.7729809137 7.61252677599 2.29068124806
2334 1 19.4807472375 7.78973295561 0.5296686478
2367 1 19.5778113133 9.62126676762 2.89798733555
2329 1 20.8445661078 9.78142014658 0.902686430068
2323 1 24.4171773998 8.33158207926 1.15323795696
2059 1 25.1087923312 9.9105308052 2.91732589605
3022 1 26.085051673 10.3970930777 0.935908062287
3016 2 23.3737969945 8.43225882876 3.21859518968
2985 1 27.1667508367 8.4359407769 1.64342124476
3307 1 30.0103855123 10.8087950148 3.16531298488
3313 1 29.9842299772 8.47500693027 1.32898588895
3350 1 28.6481061694 10.4624345429 1.1409959128
3351 2 28.8228932816 8.86701449823 3.40993606745
2979 1 27.3036159322 10.8679804403 3.09092903348
3635 1 32.7395157933 10.7528337227 3.13362710815
3641 1 32.7587925157 8.50705866548 1.35619915979
3678 1 31.3648765582 10.5125092225 1.10526563861
3679 1 31.3682831615 8.73347883875 3.35764845739
4006 1 34.16532648 10.5183807742 1.12684895832
4007 1 34.1557517999 8.75426142253 3.36330187248
3963 1 35.5586714075 10.7586045484 3.13344496728
3969 1 35.5825198913 8.52244954359 1.37088804973
4334 1 36.9716010957 10.5331935281 1.14765145526
4335 1 36.9552530366 8.77569747076 3.37025243321
4291 1 38.3362076968 10.8017122072 3.166003859
4297 2 38.3645379486 8.50867031426 1.37330453186
4619 1 41.0744679327 10.8416789023 3.18127826085
4625 1 41.0896257147 8.53185136102 1.39287373149
4662 1 39.7271734759 10.5350324039 1.17126341856
4663 1 39.7209509807 8.81270700309 3.38743700647
71 1 44.1016096388 8.52611994219 1.54401098089
4953 1 42.5482702782 10.459350093 1.28296995809
4991 1 42.4341121323 9.01412727976 3.35252445809
4946 1 44.1623244419 10.9316660413 3.11628961967
33 2 43.7462472345 7.31828101743 3.65073642738
398 1 2.97689221495 11.8056796888 1.28242621202
391 1 3.05247116156 13.5015703675 3.43112463851
453 1 1.66932214698 13.988963168 1.60438942836
129 1 0.115444482578 11.7134014613 1.45813388154
399 1 1.41745110341 11.6666325898 3.54192547061
354 1 4.54247020593 13.7884574208 1.51953369465
355 1 4.43027669125 11.5806545903 3.29130586565
682 1 7.39009446758 13.7581387895 1.50947981815
683 1 7.33188195211 11.5035200879 3.28525716565
726 1 5.95790960973 11.8062869552 1.35309195303
719 1 5.94591949876 13.5020124249 3.4522277509
1010 1 10.0668554869 13.691762896 1.44047079562
1011 1 10.006031867 11.4789335384 3.23904271493
1054 1 8.65484932855 11.6930451972 1.23148306283
1047 1 8.71840131791 13.5200903566 3.47848131466
1382 2 11.337759112 11.4764715925 1.19282045879
1375 2 11.3812372401 13.5709888971 3.55931442431
1338 1 12.6470695888 13.6989877433 1.40624649363
1339 1 12.711925621 11.4862358073 3.21520810097
1710 1 14.0587079575 11.736488895 1.19181737538
1703 1 14.0568081203 13.5049604402 3.3769042138
2366 2 18.1181549142 11.4923562424 3.1566521183
1666 1 15.4692228088 13.7640808532 1.42187488399
1667 1 15.4816309945 11.5387174124 3.21070935574
1994 1 18.193030237 13.8236677412 1.38340559758
1995 1 16.8082218334 11.7869272306 1.16035355198
2031 1 16.9565639896 13.5572951663 3.49268735648
2359 1 19.5256396403 11.7526840595 1.28354328434
2678 1 20.9818120437 13.727486134 1.26926897906
2421 1 22.3866943695 11.6661961881 1.08090886826
2679 1 19.6439919242 13.358148573 3.25321226818
2680 1 22.6594095202 13.5441689797 2.90802421833
2688 1 21.188712745 11.4870354468 3.12556767789
2866 1 23.2553136177 14.2416077126 0.468127447227
2694 1 24.6809673357 12.3745546604 1.22879597543
2642 1 25.7790891106 12.7628267073 3.15362294604
3014 1 25.8490146019 14.4969978777 0.600326615014
2643 2 23.6278781445 11.5487833234 3.29712653447
2978 1 27.2362432331 12.5177998573 0.943573822643
3306 1 29.9621228398 12.5202908612 0.872284827436
3343 1 28.6000882601 12.8023080838 2.94633848519
3342 1 28.5605070276 14.5175878485 0.612801736616
3634 1 32.762691611 12.5241875366 0.877560493829
3671 1 31.3723159171 12.775480336 2.89853614608
3999 1 34.1534769733 12.7605761255 2.89862118973
3998 1 34.1781246639 14.5299587163 0.665194278699
3670 1 31.3777761297 14.5231023837 0.630119584953
3962 1 35.5757780759 12.5272670017 0.90242605381
4327 1 36.9463326677 12.7816739537 2.92039698926
4326 1 36.972165625 14.5566687387 0.692707115313
4290 1 38.3641504197 12.5448992866 0.932409272231
4618 1 41.1191498285 12.5012649052 0.967359639319
4655 1 39.7398898049 12.8136299281 2.95989197847
4654 1 39.7805156645 14.5618097148 0.731433078176
63 1 45.6075614602 13.4715911125 3.13154104787
125 1 45.2057150897 14.402082728 0.693067425641
4938 1 42.4958153669 12.7505718105 3.03609806144
4990 1 43.6943057185 12.5515035727 1.07313895976
4982 1 42.4372316083 14.5647644944 0.694703552184
26 1 3.17460121857 15.795342738 1.53611051553
382 2 1.95093432745 17.71738698 2.0906921761
62 1 0.9935124484 16.3985776195 0.472616714041
390 1 1.763947111 15.4970144825 3.60594223764
574 1 3.08752084314 18.0776525346 36.5619255849
345 1 4.52763150894 17.7832629216 1.92132722497
673 1 7.29714864883 17.8000032436 1.87672260934
718 1 5.96335937438 15.7844610534 1.66813826215
346 1 4.56817067199 15.5185730197 3.59135939244
1001 1 10.0252415961 17.7932380505 1.86502258096
1046 1 8.71994345554 15.7642981978 1.66114991092
1374 1 11.3655444124 15.7666692285 1.62718716686
1329 1 12.7426864384 17.7662571714 1.84095786292
1702 1 14.0640611398 15.7329730511 1.58850038065
1330 1 12.7547718959 15.5405260755 3.63810064953
1657 1 15.5020071537 17.764474538 1.81057727386
2030 1 16.864895913 15.7864160527 1.62707136739
1985 1 18.3552970818 17.7802017656 1.75766842405
1658 1 15.4716048601 15.5049010117 3.57877510606
1986 1 18.3521790182 15.5473017623 3.54439585557
2869 1 19.7136644065 15.7793107899 1.50079584552
2351 1 21.2043127396 17.8430890584 1.80064622919
2360 1 22.5814867849 15.9390707808 2.01817707022
2635 1 20.8233491322 15.3658417737 3.5388076399
2824 1 24.6285683354 14.8402084202 2.71114311247
3006 1 25.9645604009 16.8149225178 2.26354915573
2641 1 24.3106792281 16.2793046069 0.101963143465
2313 2 23.90180913 18.0631195028 1.61566637192
2970 1 27.1579865312 14.7598116865 2.70695399625
3298 1 29.9922044064 14.7669871335 2.63452227368
3297 1 29.9779736146 16.5173985281 0.402209589259
3334 1 28.5865756243 16.7397766264 2.40731815079
2969 1 27.2028906577 16.4858536379 0.275030386693
3626 1 32.7659233819 14.7727410626 2.66437531987
3625 1 32.8044784784 16.51382614 0.421589537785
3662 1 31.3890667806 16.7689881395 2.4062824848
3990 1 34.1654112745 16.7793553537 2.44697036757
3954 1 35.5505471255 14.7807947556 2.68480470719
3953 1 35.5760629804 16.5404373752 0.442153069454
4318 1 36.9542254096 16.7943224228 2.45795126686
4282 1 38.3568045752 14.803550171 2.71334274259
4610 1 41.1478275864 14.7983339675 2.77642739785
4646 1 39.7926289488 16.8060680855 2.51835573475
4609 1 41.1669465602 16.5972330637 0.528168633403
4281 1 38.3794232771 16.580050232 0.490477858788
27 2 43.6847505425 14.6649000428 2.67118281576
4974 1 42.6205821022 16.7763279449 2.60402713935
4937 1 43.9253142785 16.4918529327 0.546200395686
49 1 45.3860101839 16.0558890232 2.53063630557
573 1 3.15151809279 19.8071776765 1.986983144
244 2 2.00552479429 21.8003247923 2.55819321256
901 1 5.83183304633 19.8045971389 2.0554505277
859 1 7.19209913565 21.8208704439 2.24863669536
531 1 4.46183674678 21.8220742653 2.23566312822
861 1 7.2212700187 20.0554022425 0.0541860955776
533 1 4.40087346916 20.0928758089 0.011569829826
1229 1 8.62667614303 19.8164579401 2.0746311962
1187 1 10.0096188394 21.8135027024 2.28534060062
1189 1 9.999469145 20.0408208318 0.0521672414284
1557 1 11.3969600319 19.8018751031 2.07937136626
1885 1 14.157166011 19.7713342297 2.06631971833
1515 1 12.8054607686 21.7950055281 2.30276841021
1517 1 12.7566634749 20.0055963825 0.0528508620267
2213 1 16.9841629652 19.7606340217 2.01629790604
1843 1 15.5950445524 21.7456281897 2.29630219379
2171 1 18.4424470168 21.7579337478 2.25664946845
1845 1 15.5340901177 19.9705712878 0.0498432255678
2173 1 18.4253546312 19.9394247344 36.5631946235
2828 1 19.8630722904 19.8174413003 1.96401589578
2494 1 21.3323934793 21.86749569 2.24063595845
2868 1 22.9026219205 20.1431042279 1.97346633325
3196 1 25.9230501445 20.7191727635 1.89812708003
3198 1 25.7520493784 18.4087823586 0.0992165873443
3157 1 27.3734095119 18.7786390258 2.14388771573
3485 1 30.011465487 18.7721119823 2.17380657535
3524 1 28.6367961452 20.8174191737 1.96506457342
3526 1 28.629715683 18.4854107723 0.109520208652
3854 1 31.4635702977 18.4898331226 0.148825933371
3813 1 32.7782095027 18.7796308868 2.22381789544
3852 1 31.4304196228 20.7605576256 1.98184156546
4180 1 34.174067966 20.8014453927 2.0084131549
4182 2 34.1896583516 18.4676829518 0.321560682716
4510 1 36.9471324291 18.5807954844 0.228404249707
4141 1 35.5743457787 18.8009734134 2.24573092405
4508 1 36.9527625454 20.8073813684 1.98649949485
4207 1 35.5537306119 20.562557043 0.00652968851468
4797 1 41.2111698551 18.7839558092 2.28491320472
4469 1 38.3688783466 18.8075467269 2.2387496769
4836 1 39.8014559879 20.8160598357 2.01271830029
4838 1 39.781744774 18.5996153634 0.267152480812
4863 1 41.203178186 20.6019086293 0.0309397843575
4535 1 38.3810344238 20.6101677622 0.019359114793
245 1 45.5213896412 20.7129370862 1.89599729766
246 2 45.1035409805 18.4743422209 0.182834078017
5125 1 44.0254825497 18.6336333686 2.2772373475
5164 1 42.6199776264 20.7517259393 2.03962665817
5166 1 42.5600458688 18.5537906129 0.276725877913
5191 1 43.9239735506 20.5645960568 0.0480112556882
572 1 2.78674831301 22.2450434167 0.195821667714
569 1 3.08870446785 23.863108462 2.32938791864
5122 1 0.595177164755 23.4144559928 1.91365024413
900 1 5.74696921337 22.0564109626 0.204205535484
530 1 4.34439652383 24.0413022393 0.312988005204
858 1 7.16923684173 24.0496965131 0.422697278121
897 1 5.77871663078 23.8273828725 2.40667689722
1228 1 8.59853381759 22.0522523942 0.262080395911
1186 1 10.0060068955 24.0429642259 0.482504914026
1225 1 8.59249435278 23.8045202874 2.46626233749
1556 1 11.3952174122 22.0336791547 0.277101640548
1553 1 11.4167100311 23.8022305932 2.50800367477
1884 1 14.1768668606 21.9932747778 0.287760496423
1514 1 12.816722515 24.0188651196 0.507884440109
1881 1 14.2382418672 23.7752432168 2.53329529647
2212 1 16.9830199961 21.941974158 0.283096858957
1842 1 15.5941053466 23.9754070794 0.497294137993
2170 1 18.3687958163 23.9489693245 0.503513087458
2209 1 16.9925552967 23.7183141241 2.51356030135
2540 1 19.8380488989 21.9555578555 0.208720841627
2495 1 19.8328106676 23.7680069642 2.44954069777
2537 1 21.1360466837 23.9422815449 0.328526358566
2923 2 22.5488213412 23.9633575701 2.07654203011
2501 1 22.7220652348 22.0625975868 0.0513699708991
2826 1 24.3367185951 22.487396192 1.76797587698
3192 2 25.7361695183 24.4315905756 0.530345185079
2859 1 25.1804110092 24.7261859609 2.6070646954
3154 1 27.2064355381 22.8351130884 1.76477805057
3482 1 30.050380817 22.7670285118 1.79571786844
3520 1 28.7390651306 24.7617104999 1.59359623764
3478 1 30.0212116641 25.060337914 3.61860794337
3150 1 27.3350055522 25.0089761568 3.62610101295
3810 1 32.8042359422 22.7946365725 1.78860043261
3848 1 31.4113616393 24.8067027085 1.58784519933
4176 1 34.1814947038 24.8223403015 1.57256352885
3806 1 32.8031065531 25.0706493246 3.58571746176
4138 1 35.5671810334 22.8131589722 1.78591702203
4504 1 36.9842740608 24.8226633883 1.57635259315
4134 1 35.5979774605 25.0631366175 3.56374658949
4466 1 38.3784793891 22.8129190782 1.76567401506
4794 1 41.2230751657 22.8342092687 1.7552245611
4832 1 39.8291963114 24.7969892192 1.47794768106
4790 1 41.0354878393 25.068965001 3.52334238196
4462 1 38.4152356071 25.0504822228 3.5333201701
5160 1 42.7552777462 24.883980009 1.74822561617
5161 1 44.0344022368 22.7660474666 1.86429719322
242 1 45.1122349574 25.5499154603 1.43553856099
198 1 1.58295713815 25.6745866836 2.65031735129
568 1 3.03253053832 25.9800148006 0.668202111692
563 1 2.9417561252 27.7826785424 2.85717437881
197 1 1.41946454453 27.6691454508 0.589577392446
241 1 0.370828762905 27.7546121754 2.94512982286
526 1 4.39649486846 25.8484526837 2.63475354697
525 1 4.35464740016 27.9893526764 0.919508056496
853 1 7.18995865977 28.0062343701 0.870376682948
854 1 7.21048043623 25.8024349685 2.62681266298
891 1 5.81642169789 27.7816034217 2.89262324176
896 1 5.76775393164 26.0333665185 0.612173430522
1181 1 10.0365686182 28.0121537983 0.946916816551
1182 1 10.0017530129 25.790930111 2.70746539743
1219 1 8.60167787306 27.7704873974 2.90282254357
1224 1 8.59758921822 26.0390350996 0.66007022373
1547 1 11.4257672159 27.7832805578 2.95064290428
1552 1 11.4284474389 26.0258722057 0.718697603964
1509 1 12.8319004584 28.0353389366 0.953250603792
1510 1 12.8375605121 25.7878490325 2.7364524043
1875 1 14.224472501 27.8015913352 2.97038869584
1880 1 14.2218869542 26.0189417104 0.720027156038
2166 1 18.3362384829 25.7293539872 2.61286251184
1837 1 15.6246580903 28.033594857 0.994592287217
1838 1 15.6234902643 25.7831242364 2.71942384307
2165 1 18.304607363 27.9774810635 1.06035846381
2203 1 17.0183995284 27.8120108418 3.0520756045
2208 1 16.9650879608 25.9838335406 0.684446630737
2536 1 21.1056746898 25.8683696215 2.56881229241
2589 1 19.6292535502 27.6988591938 3.0707439686
2551 1 20.962145555 27.9468102668 1.09763005674
2864 1 22.4043026612 26.0583880165 0.631186145469
2550 1 19.7656222221 25.9705704805 0.539234504511
2487 1 23.115810636 27.8287541529 2.42312836314
3186 1 25.6600137691 28.9044646221 1.22166466695
3251 1 24.6516868765 26.5859282728 0.928740299585
3187 1 25.7720939023 26.9802945393 3.33192820241
2531 1 23.3357936488 25.739975847 3.46551008662
2488 2 24.7932612828 28.9923357108 3.37799531339
3149 1 27.1437214152 26.6036426687 1.31939268818
3471 1 29.9427874403 29.0716461923 3.13615014159
3477 1 29.9896012451 26.814957584 1.35759535148
3514 1 28.4974775129 28.7812599676 1.15774470042
3515 1 28.5633099865 27.0484701724 3.34401994792
3143 1 27.1829743003 29.0357912013 3.1610773048
3799 1 32.7828617289 29.0717297539 3.11583306737
3805 1 32.7797469753 26.8299420858 1.34723018385
3842 1 31.3543282885 28.8340590016 1.12427048957
3843 1 31.3858632849 27.0635139753 3.35818630566
4170 1 34.1966798858 28.8321734419 1.11972988997
4171 1 34.1993670066 27.067959994 3.34059728264
4127 1 35.6278079008 29.0664422858 3.11557399321
4133 1 35.608573904 26.8299685361 1.34900591109
4498 1 37.0440365566 28.8249444711 1.12606392146
4499 1 37.03583341 27.0648856476 3.34994100364
4455 1 38.4644004974 29.0667689898 3.13659200362
4461 1 38.4390012933 26.8127107625 1.34429208262
4789 1 41.1716208002 26.7771365632 1.39317662822
4826 1 39.8074132748 28.8142871939 1.10310692517
4827 1 39.7865833638 27.0730942179 3.38465578683
4783 1 41.1833593524 29.071376125 3.14509938368
240 2 44.9253882291 27.8473956069 0.936112766586
5154 2 42.1446481093 28.8912454969 1.05097572028
5155 2 42.4621959114 26.996208451 3.50853178323
235 1 43.9575401126 29.1178528161 2.87941918449
289 1 0.320247607175 29.8843337632 1.16913398109
191 2 1.72210811899 29.8621255982 3.27628519355
293 1 2.94204885616 29.9031361343 1.16958520741
227 1 1.8398790877 32.0378735121 1.48822250652
555 1 3.08856101527 31.7225731617 3.47260782187
234 1 0.0106633209794 31.5729314326 2.96416002784
518 1 4.39598235456 31.9651670309 1.43369507774
519 1 4.41507314456 29.7309443662 3.17935208024
846 1 7.21551561867 31.9636226489 1.3739870249
847 1 7.23908604798 29.7407216676 3.11873080054
890 1 5.78515273731 29.9689644952 1.1589461233
883 1 5.87655476113 31.7271046259 3.36164899596
1174 1 9.9835806255 32.0107765895 1.36548724776
1175 1 10.0175085255 29.772569922 3.1512720016
1218 1 8.60954551565 29.9808990893 1.12560915209
1211 1 8.61328126586 31.7598768709 3.37440844355
1539 1 11.3972745543 31.8004598042 3.39176408316
1546 1 11.4213735425 30.0294252327 1.16562564794
1502 1 12.8148827725 32.0494223016 1.41456178504
1503 1 12.8170670363 29.8036155601 3.19251753079
1874 1 14.2404098119 30.0561718642 1.22337121622
1867 1 14.2117228388 31.8229696427 3.44842356466
1830 1 15.6355959019 32.1014834932 1.49714310668
1831 1 15.6286631343 29.818776048 3.27666610068
2158 1 18.456671618 32.1226411458 1.56053779309
2202 1 17.0003799704 30.0681780223 1.32841397753
2159 1 18.4902996514 29.8444184711 3.35456409689
2195 1 17.0320987319 31.8249795197 3.51259489527
2814 1 19.6615937961 29.9923694028 1.30829879722
2843 1 21.2061445293 29.427451368 3.41048132519
2530 2 22.1897541029 29.7838760257 1.4265804785
2523 1 19.8848027217 31.9052634598 3.54235980288
2850 1 21.1958575253 31.7392373502 1.46366800082
2806 1 23.2682273158 30.8698970517 3.02985745497
2815 1 25.7004028876 31.0870511027 2.94208205371
3179 1 24.0117429105 31.1998868487 0.640773236464
3178 1 25.7154753653 32.814102991 0.661989566854
3142 1 27.050562195 30.8351498827 0.868976098861
3470 1 29.9052513277 30.8173042194 0.9044847742
3507 1 28.4644505497 31.0677149971 2.90981376539
3506 1 28.4852972993 32.8263045958 0.669921556281
3798 1 32.7686221921 30.8282954426 0.890782424127
3835 1 31.3441101793 31.0654029881 2.889253403
4162 1 34.1944800559 32.8181083167 0.661554753607
3834 1 31.3382317299 32.819871536 0.668903232803
4163 1 34.2031928278 31.0610867264 2.88075079791
4126 1 35.6248513093 30.822505092 0.888615427877
4491 1 37.0563942847 31.0603525303 2.87961735268
4490 1 37.0437957557 32.8144585984 0.637213031995
4454 1 38.478606431 30.8259862476 0.869674724353
4782 1 41.1901136561 30.903470992 0.883795164405
4819 1 39.8142652632 31.0723790104 2.91896482072
4818 1 39.867361036 32.8438068335 0.600588257924
5117 1 45.6197044865 32.5820834918 0.205909803134
5111 2 44.0871403981 31.1455739579 1.22420474554
5147 1 42.5774126786 31.0869336848 2.89232937245
5146 1 42.7394715336 32.8103969718 0.508377486476
181 1 1.56370778082 36.3994686403 1.90588102932
554 1 3.08998010676 34.0685909382 1.67866221563
247 1 0.358902996637 34.2491497505 1.92662583663
509 1 4.46434666762 35.9804001383 1.86381526454
837 1 7.17578413851 35.9869888864 1.84240056331
882 1 5.81594547484 33.9412770576 1.64791812683
838 1 7.23525881423 33.7500323059 3.62240611722
1165 1 9.93056471147 36.0237538417 1.82052349389
1210 1 8.5471665389 34.0000178014 1.5690103203
1538 1 11.3720659282 34.0338202955 1.60627488887
1166 1 9.97139543315 33.7962646119 3.59766334448
1493 1 12.7719011895 36.0503480211 1.84104428533
1866 1 14.2071010316 34.0764727167 1.6591284751
1494 1 12.7895530974 33.8210111478 3.62986528244
2149 1 18.6138533058 36.1814141162 1.99418279313
1821 1 15.6178074264 36.0889988744 1.83586456968
2194 1 17.0782142916 34.159461148 1.71447316649
2150 1 18.3629734754 33.836266209 3.6463856488
1822 1 15.6057008321 33.8129946332 3.65551694005
2514 2 22.0114443183 33.0797934018 3.00956597455
2522 1 20.1091199319 34.0208206338 1.50385032749
2913 2 21.8079510848 35.0165494717 0.128519528267
2378 1 19.9925298765 36.4992441558 0.00477973411891
2798 1 22.9617373008 35.0312296323 2.47490493032
2836 1 24.3104347557 33.0583140848 2.71558350708
3170 1 25.6435232174 35.0587577129 2.46595497589
2842 1 24.2588858252 34.730186997 0.355468985299
3462 1 29.9059015745 33.0538566387 2.66876484637
3134 1 27.0536215775 33.076266334 2.73398604857
3133 1 27.0893895882 34.8211411625 0.432865352263
3461 1 29.9354238661 34.8232239453 0.458865778324
3498 1 28.4986610219 35.0479011045 2.47775464573
3790 1 32.7685382885 33.0530817043 2.65470101332
3789 1 32.7769379808 34.8168256273 0.45959565363
3826 1 31.354499146 35.0455028718 2.47077120266
4154 1 34.1951260993 35.0509634379 2.45981652666
4118 1 35.6252622706 33.05208079 2.63514415016
4117 1 35.6099053573 34.8172372621 0.448178577596
4482 1 37.0125797867 35.0643302448 2.43986404538
4774 1 41.1815996392 33.0493100672 2.64367867081
4446 1 38.4450806834 33.0748065328 2.61986500895
4810 1 39.8300903924 35.098681092 2.40953947043
4445 1 38.4323832625 34.82061279 0.427522692729
4773 1 41.2832995072 34.7831876158 0.424983736834
4961 1 44.3235711044 36.5190743147 2.26884750069
5110 1 43.918058691 33.1401022454 2.67577360882
5138 1 42.4697613054 35.0697220085 2.56936157447
5101 2 43.9193932871 34.7256346473 0.847520500128
82 1 45.6745816419 36.3042553227 0.00874232987489
40 2 3.27786640313 2.91585427228 4.27716628249
174 1 0.378791465963 0.596890004981 5.93037871515
402 1 1.53086703423 2.99767897348 5.7299216993
406 1 1.9523645017 1.00837832132 4.19654635555
540 1 3.00016969308 0.891280794211 6.2366287848
407 1 4.33070483556 2.99297645454 6.38626539867
368 1 4.54648639038 1.08506912429 4.14926981718
692 1 7.12307150926 3.03762827242 6.32882740904
696 1 7.12837973455 1.25649826441 4.09783754822
735 1 5.80118254356 0.964916187805 6.18390498942
734 1 5.73821405471 3.27626299588 4.3381468947
1020 1 9.93506104214 3.01189926301 6.29319483318
1024 1 9.93614052226 1.26287378985 4.06718833076
1063 1 8.55327483245 1.03098829475 6.09020206746
1062 1 8.53811780584 3.28808209372 4.3102793674
1390 1 11.3343414853 3.25705484021 4.28281046604
1391 1 11.3566771344 1.02156798843 6.05758770237
1348 1 12.7440671436 3.0144864777 6.27079768148
1352 1 12.754608447 1.25961319398 4.03673778832
1719 1 14.1438790863 1.01693160846 6.00703714009
1718 1 14.1156869102 3.28860719757 4.27016372026
1676 1 15.5159212773 3.02416373014 6.25120803023
1680 1 15.5548388904 1.30573116702 4.04155198076
2008 1 18.1362049016 1.37749116473 3.97172270721
2047 1 16.9352087952 1.0116726983 6.03251397322
2369 1 18.1924456694 3.01196452237 6.22007677013
2046 1 16.928051178 3.33919683715 4.22514196993
2375 2 20.127760036 0.498852372832 3.86611536886
2697 1 19.8643939227 3.12347489474 4.11798454874
2370 1 19.9828491838 1.47651245825 6.02753080724
2662 2 22.2439723733 2.43552677456 5.0247948037
2333 1 22.618785411 0.175248777676 4.43027747578
2325 1 21.8479372347 3.07875529281 7.0972651915
2701 1 24.2761743456 2.6605778406 3.89071513379
3033 1 25.6684640804 0.754140759334 4.27562362067
2704 1 24.1420270705 1.31178326816 6.09613643385
3030 1 25.8208172074 3.05576972673 6.04949542464
2991 1 27.0919669617 2.73185660145 4.00726551797
2992 1 27.0623156298 0.987019302999 6.32147136247
3319 1 29.9644746429 2.69381831533 4.03515318272
3320 1 29.9468157741 0.973641635301 6.26778094933
3358 1 28.5284870489 2.97893772585 6.03282686786
3361 1 28.4985349445 0.728489469261 4.27434485565
3647 1 32.7706624497 2.72693300672 4.03982048296
3648 1 32.7950182514 0.953654060736 6.27203895874
3686 1 31.3518645547 2.97771842917 6.0459944386
3689 1 31.3712230054 0.715844018042 4.26236335339
4014 1 34.1855574442 2.96290146296 6.04450364024
4017 1 34.1924420911 0.724074856245 4.25818034592
3975 1 35.5844881241 2.74151384582 4.03450529291
3976 1 35.6011110208 0.936987444331 6.27351593259
4342 1 36.9804258949 2.9842811063 6.04457975461
4345 1 36.9987093148 0.743046928429 4.23890519269
4303 1 38.3662437393 2.78934325854 4.0463288835
4631 1 41.1281867257 2.81283978654 3.96063237151
4304 1 38.3954873266 0.999404030861 6.23187823995
4632 1 41.1028562975 0.955743960456 6.07552721567
4670 1 39.7826002867 3.02062670663 6.00830499718
4673 1 39.7618951845 0.789483745079 4.1472972825
4959 1 43.5323987984 3.06983295728 4.09094047087
79 1 44.9432100574 2.80537007248 6.04222032754
218 1 45.2720441185 1.56124247311 3.90337262754
4998 1 42.3357045608 3.02718189463 6.08862853662
5001 1 42.6023514489 0.849397629038 3.9296726342
37 1 43.5720727406 0.998426971266 5.99620134564
401 2 1.57990011846 5.44332083373 5.48552794934
393 1 1.23489560286 7.12272375083 7.12035958898
363 1 4.09519776026 5.26913344379 4.60862560676
691 1 7.09919068637 5.27716285528 4.53663432627
729 1 5.64530810721 5.03510126214 6.50522244248
685 1 7.14104893982 6.99379885858 6.73744547354
357 1 4.21608186779 7.02008718199 6.78000885757
728 1 5.63780037784 7.24115648754 4.74435528734
1019 1 9.98829689577 5.27474678916 4.52383954494
1057 1 8.55967841662 5.02274070499 6.5108794697
1013 1 9.96553968608 6.9971918257 6.75809540908
1056 1 8.57170204401 7.22442694295 4.74691287209
1385 2 11.3287504492 4.91153923788 6.61050578161