ITEM: TIMESTEP
20000
ITEM: NUMBER OF ATOMS
5248
ITEM: BOX BOUNDS pp pp pp
0.0 45.68
0.0 36.5618393957
0.0 36.5618393957
ITEM: ATOMS id type x y z
409 2 3.21549047575 1.16740601445 2.18148913569
39 1 1.80784937874 3.32767663382 2.18705636552
181 1 0.877069065174 1.09004213751 1.8942030524
697 1 7.19820592255 1.64073076857 0.129239856276
737 1 5.75498455291 1.42996149081 2.10358233659
695 1 7.15990800513 3.42464101802 2.35711834655
367 1 4.32198565689 3.40214301399 2.27994388902
736 1 5.78794946829 3.59859113042 0.318244183219
369 1 4.27597437299 1.70572047443 0.0874863783667
1025 1 10.0609094548 1.67633109561 0.137759179746
1065 1 8.61655645482 1.45604379127 2.14071890962
1023 1 10.0305179754 3.45165143779 2.37497524238
1064 1 8.61798404362 3.63960334927 0.362640584815
1393 1 11.4445232601 1.45805456744 2.16981869424
1353 1 12.844271298 1.68551109833 0.160529482318
1721 1 14.2348202959 1.47644549274 2.19051460064
1351 1 12.8463700801 3.47563254542 2.40820094337
1681 1 15.5416855847 1.76157030559 0.141122895852
2049 1 16.9061946964 1.54512593833 2.14933864095
2009 1 18.3075399405 1.79682894971 0.187878894335
1679 1 15.6292681482 3.53392345971 2.4187962411
2007 1 18.3295052623 3.6146769918 2.43751555689
2377 2 19.4752820552 1.76825518742 2.18953452929
2477 2 22.1300213311 0.202194753948 2.27510999988
2337 2 21.7608606978 2.38096324821 0.0631473086384
2378 1 20.3963810327 0.303731507149 0.344969016373
2335 1 21.1509124546 3.62151183333 2.39144984825
2706 1 22.9045507468 0.140322936194 0.142728238633
2336 1 23.1528563985 2.40058724333 2.06342200221
3032 1 26.0086186068 2.39663425345 1.85597187214
2665 1 24.5065455808 0.435125467368 2.10664801725
3034 1 25.8559498368 0.323822473411 0.0604352962057
3360 1 28.6387731592 2.55341050128 1.88438777752
3321 1 30.0219679492 0.541718856091 2.1193590152
2993 1 27.3560266383 0.487231659425 2.0467711734
3362 1 28.6293077686 0.297493797124 0.0290951161879
3649 1 32.8525354762 0.557582178822 2.14751872415
3688 1 31.4245549336 2.54746262626 1.90709894477
3690 1 31.4363315483 0.33490766196 0.132767727227
4016 1 34.2498398742 2.55878473754 1.92118079197
4018 1 34.2465859255 0.343448974847 0.139113663181
3977 1 35.6681267663 0.555402385941 2.14440043315
4344 1 37.0601070456 2.56552144251 1.91356797417
4346 1 37.0456663375 0.347884033939 0.115076981969
4305 1 38.4772705388 0.556301232093 2.10756385433
4672 1 39.8611212359 2.5890654857 1.89620954661
4633 1 41.1967779623 0.56557938159 2.01556299525
4674 1 39.8429502248 0.369987220227 0.0413538548425
81 2 44.907582312 2.59126894943 2.28193151511
5000 1 42.6535835709 2.39224165169 1.83237875521
4961 1 44.2528678565 0.317041399914 1.89567059222
5002 1 42.7066987831 0.386228281551 0.0435452918237
408 1 2.95807523431 3.92137819649 0.106873328244
36 2 3.09390223977 5.46068291231 2.14162198517
77 2 0.11982997699 5.45544737175 3.37641712503
70 1 1.48052481673 7.24086168605 3.04236596337
35 2 0.677386786917 7.12278253291 0.555785097406
366 1 4.54172634979 5.66013817638 0.446462221214
694 1 7.20000945411 5.6135688506 0.577504927698
733 1 5.74437300291 5.40735046309 2.57365901582
1022 1 10.0258872086 5.64992567291 0.612320691324
1061 1 8.58502380964 5.41057584551 2.60191310222
1389 1 11.4432897704 5.45635666385 2.62060264549
1392 1 11.4556565894 3.67770574136 0.377173894295
1350 1 12.8471954234 5.71634693494 0.627096891797
1717 1 14.2426732074 5.51069227645 2.63405554434
1720 1 14.2180097383 3.73400775269 0.392738924835
1678 1 15.6374904965 5.75815328249 0.634342844885
2006 1 18.4089808953 5.71475997661 0.662468827399
2045 1 17.0188477159 5.54680110729 2.67425094383
2048 1 16.966562158 3.7809201613 0.368585405893
2376 1 19.8625667772 3.82140903589 0.397958946977
2373 1 19.84214085 5.50449603252 2.6880741947
2387 1 21.3450613441 5.90373877868 0.681830277183
2767 1 22.9445505873 4.2450254752 0.14328182833
2722 2 23.2612624995 6.92879243776 1.91790429308
2663 2 24.7358344618 4.2293859511 1.65450958936
3028 1 25.8542982195 6.58739348318 1.72581104786
3029 1 22.9371661579 4.99279453018 3.06849600786
2986 1 27.2674516714 4.55967509995 1.70338815071
3318 1 30.0447199437 4.55879738761 1.68221424599
3356 1 28.6189673848 6.5691758155 1.59217502466
3023 1 27.2543838996 6.84316283754 3.64220952267
3314 1 30.0351961314 6.77865931773 3.53219226712
3357 2 28.6525047896 4.70324878788 3.62873374333
3646 1 32.8289827539 4.55623479643 1.7046549843
3684 1 31.4226173509 6.56429822368 1.51522172202
3642 1 32.8345471519 6.76988139532 3.49684359105
4012 1 34.2193599902 6.56631255608 1.47015276651
3970 1 35.6351245866 6.78080245424 3.48485335577
3974 1 35.6395102248 4.56731892857 1.69753479532
4340 1 37.0306253744 6.57970258661 1.48732176666
4298 1 38.4404000794 6.81356310431 3.50023429035
4302 1 38.4458343136 4.58167145961 1.7138008389
4630 1 41.2836345326 4.54464590269 1.73435933115
4668 1 39.8251154731 6.59367324983 1.50579658372
4626 1 41.1908701531 6.90909047299 3.52798823558
4958 1 43.9401315849 4.63435683421 1.85923636721
4996 1 42.548020533 6.63998733367 1.57640330407
4954 1 44.1283769178 6.98071089934 3.40915545399
404 1 3.03871322047 7.53143684944 0.775017999436
38 1 1.44095006982 9.23993686001 1.10524566026
392 1 2.82430944048 9.32993311289 3.08044113326
362 1 4.32528051704 7.40386864467 2.87002813783
361 1 4.40448066668 9.54656205905 1.16331447187
689 1 7.26420066082 9.61975095971 1.14893855838
690 1 7.17559271588 7.39959569155 2.88472626693
727 1 5.77516906497 9.39212035022 3.10487228895
732 1 5.86437350316 7.637060502 0.844156183115
1017 1 10.0369417515 9.63247908103 1.10322836661
1018 1 9.96783942066 7.3755846328 2.86926552501
1055 1 8.61991515366 9.41623736678 3.11592701623
1060 1 8.60802748804 7.62455309883 0.851204824231
1383 2 11.2653233497 9.2279223873 3.07470575508
1388 1 11.4298170687 7.66757623709 0.885948129291
1345 1 12.7917434177 9.68713154034 1.14550934706
1346 1 12.8479232496 7.48236191338 2.87542521146
1711 2 14.3886193184 9.38094442807 2.99567322547
1716 1 14.2502672363 7.72798949676 0.881750210854
2002 1 18.4726124777 7.46716256988 2.95725308962
1673 1 15.661683009 9.73345852412 1.10083678133
1674 1 15.6545922999 7.48040202113 2.92955605511
2039 1 17.0766639444 9.4835565327 3.16734161639
2044 2 17.0554730457 7.7931303593 1.00426329969
2001 1 18.4435301945 9.74710632645 1.13686687321
2759 1 21.2738419455 7.3757418495 2.92187867416
2334 1 19.7505586277 7.69392859347 0.865038723169
2367 1 19.8845824363 9.35966386476 3.18748245142
2372 1 22.5692436583 8.33823440505 0.421482355317
2329 1 20.9332707008 9.71540493239 1.0766764069
2323 1 22.897435479 9.06701101049 3.206072239
2421 1 22.9507990022 10.7841537847 1.07664448371
2059 1 24.6571663457 8.74782948721 1.50151175357
2657 1 25.8634796019 8.95579997044 3.49587344263
3022 1 25.8658684732 10.694002476 1.18802372775
2979 1 27.2603389542 10.8312676503 3.16620138691
2985 1 27.2237710493 8.58912484738 1.41316364137
3307 1 30.0629034636 10.7917234601 3.07706634442
3313 1 30.0117445363 8.55828778467 1.31106307246
3350 1 28.6469106093 10.5696866008 1.1144433177
3351 1 28.6463244107 8.79384700096 3.37829562877
3635 1 32.8183812274 10.7919740152 3.04202296497
3641 1 32.8083619201 8.56881262417 1.24758767249
3678 1 31.3968258343 10.5680415826 1.0193407463
3679 1 31.4385930711 8.77432911549 3.2854550685
4007 1 34.220186781 8.78516888925 3.26114800162
4006 1 34.2099101172 10.5714567901 1.02212600103
3963 1 35.6113883279 10.7998455047 3.04179064536
3969 1 35.6187844532 8.57528396827 1.24953532383
4334 1 37.0164756477 10.5877464083 1.03351710893
4335 1 37.0180121338 8.79927298437 3.26938145947
4291 1 38.4120211149 10.8212200903 3.05882178431
4297 1 38.4236684063 8.60043075336 1.2779016755
4619 1 41.2608374763 10.8573049063 3.1180017162
4625 1 41.225632354 8.63977532097 1.31040172008
4662 1 39.8298883332 10.6224243497 1.0650349399
4663 1 39.824215134 8.85589261097 3.29634858091
33 1 45.6192989424 9.14226239532 3.24998873861
71 1 44.184220554 8.46723961576 1.31320452565
4953 1 42.626242564 10.6403635506 1.09525950678
4991 1 42.6783150614 8.88486015085 3.26842621772
129 1 45.1622478054 10.5943497038 0.997612122889
4946 1 44.0165496414 10.8466678138 3.07501847541
398 1 2.88468059977 11.4078264588 1.1712375119
128 2 0.779912694149 12.38540296 0.795446933339
399 1 1.22965765961 11.2556401714 3.10255170336
391 1 2.93622697907 13.3247921606 3.31845689527
453 1 2.21087776012 14.1584769232 0.646024157295
63 1 0.588825517371 13.7578848233 2.65610591485
354 1 4.45301522729 13.6244392755 1.31805194819
355 1 4.28662211455 11.3679483168 3.19377294851
682 1 7.22985133603 13.630758396 1.44805968314
683 1 7.20801556282 11.4026960695 3.32548762843
726 1 5.78681280918 11.6009555073 1.3484136072
719 1 5.78062433355 13.3987789744 3.38049206006
1010 1 10.0177888773 13.6865170698 1.4923050939
1011 1 10.0754007836 11.3881276541 3.31932620503
1054 1 8.70188258905 11.6363846484 1.3888665425
1047 1 8.63390164234 13.3901934595 3.45466855748
1382 2 11.3996000442 11.7550601313 1.21248918382
1375 1 11.4200637355 13.3878800443 3.51005396233
1338 1 12.8083150275 13.6535315714 1.52624427941
1339 1 12.7694985119 11.3252296088 3.35602460417
1710 1 14.1872404005 11.6552326825 1.36406352773
1703 1 14.1623799227 13.3843641593 3.52416333201
1666 1 15.580709837 13.6896014025 1.51343041204
1667 1 15.6203843787 11.4339896627 3.32864779521
1994 1 18.4741725664 13.7052665447 1.63713972835
1995 1 17.0550772666 11.7268499025 1.39707313853
2366 1 18.5061955936 11.457734783 3.38206924613
2031 1 16.8977623441 13.4786146316 3.46984799369
2688 1 21.5546660416 11.0378005809 3.22820294545
2359 1 19.8539293062 11.7430814334 1.38851291838
2694 1 22.3099196044 12.9611556635 1.91388536344
2679 2 20.371147647 12.9342921792 3.39094056727
2643 1 24.311411063 11.0040451053 3.14879216352
2642 1 25.9251788145 12.8362007755 2.79884499158
2382 1 24.4384436522 12.6649024179 0.82193421938
3014 1 25.9228299376 14.5837218414 0.719196602257
2978 1 27.2876656465 12.5737222048 0.800091689744
3306 1 30.0043381253 12.5813263612 0.799087946093
3343 1 28.6511503949 12.804754023 2.85884727156
3342 1 28.6135811083 14.5999410153 0.558321144829
3634 1 32.8048941803 12.5675851731 0.792994407556
3670 1 31.4164513131 14.5679926939 0.568460138755
3671 1 31.4285382334 12.8013509122 2.82298390311
3999 1 34.212060739 12.8013741793 2.81653211074
3998 1 34.2063869015 14.5763210298 0.569673568264
3962 1 35.6082109193 12.5775612885 0.800264569802
4327 1 37.0000106668 12.7921907375 2.82386791406
4326 1 36.9804665438 14.5799234493 0.543823192663
4290 1 38.3992534643 12.5939301241 0.806442205279
4618 1 41.1973317949 12.6286620831 0.834163401855
4655 1 39.7898559973 12.7966619426 2.81489385899
4654 1 39.7532940501 14.5929606732 0.508496569233
4938 1 42.5678271834 12.8528869214 2.85965750931
4990 1 43.971974412 12.7088936803 0.823521535463
390 1 1.63041143325 15.78038481 2.64651983207
83 1 1.24880601374 16.4774468443 0.211842964724
26 2 3.41607368847 15.9914303825 1.41382871534
574 1 2.88622232614 18.1549236848 0.0594186214063
345 1 4.67903375789 17.7442870035 1.87249124912
673 1 7.21933209366 17.6806708459 1.93655716868
718 1 5.88022389997 15.6404291469 1.61857068571
674 1 7.23877725246 15.4195277211 3.62864830676
346 1 4.35116133817 15.3810283058 3.59357306141
1001 1 10.0311179172 17.6839090633 1.95409774231
1046 1 8.62649369621 15.6691159325 1.6755084501
1374 1 11.4191906476 15.6752203595 1.71243604023
1329 1 12.8014219742 17.7014194124 1.94013719083
1702 1 14.175317629 15.6824593707 1.71124350172
1657 1 15.552640932 17.7159994726 1.90051413291
2030 1 16.9950869228 15.7451517062 1.70279133648
1985 1 18.6269353226 17.9069262373 2.07880275537
2214 1 17.0850030689 17.980188482 0.00805055037459
2869 2 19.5784256619 15.6716470104 1.91771868149
2313 2 21.2124981468 18.2372491133 1.6574003159
2678 1 22.1235431461 15.7512790391 1.74371151164
2866 1 24.2926577197 14.7802970089 2.64214469988
3006 1 25.7689501484 16.695044824 2.20237897404
2641 1 24.1401693179 16.2595262396 0.322583741115
2500 1 23.5081099155 17.6003699613 2.30934881027
2970 1 27.2943176337 14.8166665629 2.61733742898
3298 1 30.0314525525 14.7990067326 2.59964688888
3297 1 30.0466690172 16.5619355284 0.316788841465
3334 1 28.6673750007 16.7721298062 2.35054771667
2969 1 27.2144024008 16.599643461 0.302937391925
3626 1 32.8165801441 14.8062163713 2.59029289962
3625 1 32.8118561807 16.5840917081 0.345393079185
3662 1 31.4179953504 16.8081853238 2.36872266255
3990 1 34.2160232384 16.8088608694 2.35680519609
3954 1 35.6148135132 14.799228356 2.58031242307
3953 1 35.5943462401 16.5871813505 0.332139785988
4318 1 36.985841275 16.8092859636 2.33160665727
4282 2 38.3651409384 14.7827624723 2.54859250182
4610 1 41.1015678592 14.8114521058 2.46042483286
4646 1 39.6953384166 16.7754770891 2.27223698795
4609 1 41.1316409913 16.6114859182 0.275375689234
4281 1 38.3448390624 16.5957962759 0.278633360645
4982 1 42.5522059265 14.6429859386 0.510947066418
125 1 45.4271983214 14.6723237921 0.549507496953
27 1 43.9207663118 14.7463123206 2.48252116374
62 1 45.2426211581 16.6925859842 2.27705051118
4974 1 42.5244965272 16.7648372944 2.26803739797
4937 1 44.0035001549 16.6095062116 0.23905203607
17 1 1.04276875166 18.5913468925 2.13217372132
573 2 3.18152495554 19.5119255182 2.16950897128
244 1 1.78979653237 21.6907192123 2.33674397965
205 1 1.41455376815 20.3984218953 0.195387561905
572 2 3.27644514213 21.8986963109 0.134678329454
861 1 7.2728272202 19.9352461766 0.135117276795
901 1 5.88146911186 19.7353441082 2.16164861661
859 1 7.26217218949 21.705783184 2.39669287144
531 1 4.45772094733 21.6749695253 2.37228275367
900 1 5.88134544653 21.8832362437 0.375556308347
533 1 4.46884457024 19.8974580309 0.0926679063857
1189 1 10.0561578211 19.9347423355 0.166766106968
1229 1 8.64973382727 19.6919854287 2.19001725301
1187 1 10.0641958356 21.7093923193 2.39296060399
1228 1 8.67352267046 21.9183226102 0.38799739242
1557 1 11.421041453 19.7165538794 2.144439181
1517 1 12.8236998483 19.9543059538 0.149935431986
1885 1 14.1737275638 19.7386776144 2.1361911924
1515 2 12.8138747684 21.8680169913 2.27128922916
2213 1 16.920847642 19.7075493791 2.12760622671
1845 1 15.5942321478 19.9613630655 0.143302796378
1843 1 15.5322835648 21.7248191931 2.40785223158
2173 1 18.4177155837 20.0954633025 0.189364234145
2171 1 18.2276559099 21.6762105684 2.43243895943
2828 1 20.1088200967 20.3526395411 2.05539915544
2499 1 21.9078468954 21.249837418 3.64273983164
2868 1 22.9999943922 20.0560388017 1.78520835623
3196 1 25.2223895579 19.3907010148 2.52728381019
2895 2 25.1475931911 20.6421861313 0.578756967536
3198 1 25.488398141 18.3451336488 0.111030581702
3157 2 27.3788141059 18.5967456738 1.92947330833
3485 1 30.0306027992 18.790957145 2.14942766677
3524 1 28.6828003193 20.7324961575 2.01605888394
3526 1 28.629024867 18.5547767785 0.047187130532
3854 1 31.4121466544 18.5911008523 0.129207369603
3813 1 32.819380719 18.8240783028 2.14020421071
3852 1 31.4298053212 20.8392538106 1.93415274704
4180 1 34.2108427359 20.8398957399 1.89629136054
4182 1 34.1978277973 18.6029089434 0.112806088155
4510 1 36.9691016937 18.607955694 0.0856672486667
4141 1 35.6024052497 18.8212374749 2.11620843794
4508 1 36.9619436105 20.8566198029 1.86088435331
4797 1 41.0392418132 18.7392086148 1.99489803098
4469 1 38.3508253812 18.8161170388 2.07860867337
4836 1 39.7293018857 20.8401218667 1.79420006116
4838 1 39.7131470317 18.6061160747 0.0299856139941
245 1 45.3742643911 20.6767718803 2.04617966034
5125 1 43.945049247 18.7268620008 2.02071773899
5164 1 42.428565384 20.6618612339 1.86066696449
5166 1 42.559129929 18.5919249234 0.0626583670201
246 1 45.5302309598 18.5335269661 0.0996146290044
569 2 3.22531628286 23.7732723962 2.75231106106
627 1 1.76772076934 23.5388944295 0.71593641357
198 1 1.49014217569 25.4306251371 2.90909714893
242 1 0.0290033110938 25.118854767 0.900736331932
530 1 4.51244914037 23.8652822819 0.612592076036
858 1 7.27772883695 23.9033267127 0.629722956802
897 1 5.85374335021 23.7031956227 2.61921382089
1186 1 10.0363005858 23.9732338955 0.601184968705
1225 1 8.66278134127 23.713339113 2.61422825005
1553 1 11.4180186403 23.7628442249 2.60284162457
1556 1 11.423091597 21.961892881 0.359857527722
1884 1 14.2389271635 21.9796490964 0.362822617264
1514 1 12.8461782244 23.9933313716 0.61612574552
1881 1 14.2287403428 23.7790963535 2.6277671915
2212 1 16.9777492861 22.0071732086 0.39129566048
1842 1 15.6182751074 24.004858138 0.647522151973
2170 1 18.4209817221 23.9757356896 0.73089644018
2209 1 16.9698695756 23.6895347456 2.66496789804
2540 1 19.8976641254 22.0883671818 0.245766362827
2495 1 19.8714824293 23.2196072838 2.74065879649
2537 2 20.967433954 24.2433269105 0.889056922459
2494 1 21.9795879099 22.3193539146 1.48641060394
2923 1 23.6587379546 24.2339331279 1.06156264924
2826 1 24.3535540782 22.1973972031 2.09804322323
3192 1 25.9934833345 24.5937451709 1.78999159349
2859 1 24.1428689882 25.3549340709 3.26671164948
3154 2 27.3475864829 22.5324593362 1.86237859155
3478 1 30.0639233354 25.0675894213 3.42310966221
3482 1 30.0323115965 22.8228680479 1.70512766074
3520 1 28.5369287224 24.8010557503 1.42309148844
3150 2 27.4915178786 25.1715783662 3.6413168948
3806 1 32.8350782364 25.0788339775 3.44164306587
3810 1 32.8515905603 22.8518314825 1.644261289
3848 1 31.4245832753 24.833899269 1.4341512673
4176 2 34.2253894464 24.9700820475 1.52057970227
3849 1 31.4810707111 23.053605804 3.65057823713
4134 1 35.6315703454 25.0960395021 3.45995294931
4138 1 35.5675623751 22.8686446525 1.64099153943
4504 1 36.9821234253 24.8745291559 1.4368774471
4505 1 36.9854171621 23.0844533194 3.62569628985
4462 1 38.4103559011 25.1250872162 3.4052232538
4466 1 38.3531601863 22.8737729102 1.61066081999
4790 1 41.1763739252 25.0726385558 3.36071491964
4794 1 41.1807452301 22.8454459768 1.62226383909
4832 1 39.8401516969 24.8756684401 1.40624555319
4833 1 39.7152473388 23.0933352115 3.55280583074
5122 1 45.4362943754 23.3683363338 2.77292759212
5190 1 45.4001350167 22.4553019437 0.200116831751
5160 1 42.8046621376 24.8343247207 1.4557957404
5161 2 43.6735269442 22.4841873824 1.70958257253
568 1 2.98196940229 25.6826427136 0.954830240377
563 1 2.91084175841 27.7007038344 2.85665320209
197 2 1.08914834191 27.0593184354 1.10659684974
241 1 0.0892297059188 27.4933871385 3.095604357
526 1 4.44178630067 25.7648486812 2.85952459543
525 2 4.55225369143 27.6817183595 1.06874539961
853 1 7.16824326727 27.973245811 1.0078944271
854 1 7.2580078439 25.7144669541 2.8437881709
891 1 5.85992992271 27.7197851966 3.05757463083
896 1 5.88378299005 25.8654637596 0.849273332982
1181 1 10.0182697584 27.993642476 1.03320629729
1182 1 10.0274196938 25.7563180966 2.80831251288
1219 1 8.60819693689 27.7607415245 3.01918658956
1224 1 8.61313264481 25.9755118241 0.818233043494
1547 1 11.4253021206 27.7703300632 3.03413711961
1552 1 11.4378136582 25.9945955066 0.8188692521
1509 1 12.8491861646 28.0136805115 1.04938559033
1510 1 12.8301057804 25.7636543015 2.81846447736
1875 1 14.2523288956 27.7667326395 3.05093627579
1880 1 14.2545353466 26.0205229213 0.84324604139
2166 1 18.3075008542 25.6182049535 2.87654933795
1837 1 15.7141273998 28.0408765395 1.09139361914
1838 1 15.6481922237 25.7815988085 2.83516483722
2165 1 18.4668249462 28.0549683705 1.14981812824
2203 1 17.1589707466 27.765154365 3.12436269278
2208 1 17.0540879654 26.0134622877 0.83951408993
2536 1 19.6880416634 26.1322584947 0.883368698391
2589 1 20.0755121556 27.2249542503 3.15822278382
2814 1 21.189636898 28.5569649038 1.30982518775
2551 1 22.259120966 26.3468140965 1.19394992403
2531 2 21.9363840012 25.6672429357 3.64990584516
2487 1 22.9836881717 27.5846037431 3.43580761162
3186 1 25.9223674233 28.8912480016 1.04394154807
3251 1 24.6941550118 26.7432116321 1.30962859697
2488 1 24.8210026141 29.0640511815 3.34191804965
3187 1 25.964892335 26.9589801331 3.32896524851
2851 2 23.569819656 28.6904767223 1.49588527448
3149 1 27.2145061956 26.8397164963 1.23057834044
3471 1 30.0467593254 29.0863530969 3.03332878987
3477 1 29.9903572971 26.8259579498 1.21219164211
3514 1 28.602684179 28.8595794218 1.00777183092
3515 1 28.6699597332 27.1185210478 3.24111497583
3143 1 27.256100834 29.0850152934 3.11509796171
3799 1 32.8365068541 29.1034550247 3.03524119659
3805 1 32.8065272683 26.8717331138 1.23201538233
3842 1 31.4190307396 28.8525515237 1.02328265654
3843 1 31.4327694555 27.0849003483 3.22211191987
4171 1 34.2353107033 27.1024501031 3.23731391988
4170 1 34.2390341674 28.8732510589 1.05142004004
4127 1 35.65995457 29.1095588873 3.05490736863
4133 1 35.6493702817 26.901501292 1.25154646215
4498 1 37.0646759785 28.8934872865 1.06755469988
4499 1 37.0487089372 27.117943685 3.2572383712
4455 1 38.5049843086 29.1152863374 3.07764959503
4461 1 38.4464397666 26.8803290865 1.26996186766
4789 1 41.3103593249 26.8706356839 1.2608359578
4826 1 39.8917476196 28.8794624181 1.07340128552
4827 1 39.9140370302 27.1322731242 3.25107659874
4783 1 41.3576333798 29.166792252 3.09716625145
5118 2 44.5033743443 25.6175693316 3.00177317861
289 1 45.6723136222 29.2012534111 1.03207853434
240 1 44.1676678504 27.0931078558 1.12971148291
5154 1 42.7076750196 28.9742776032 1.12197506462
5155 1 42.7801363683 27.1832635909 3.17493395234
191 2 1.40830796401 29.6008827726 3.15676952161
293 1 3.4048060466 29.9271541006 1.42250393087
227 1 1.72411749066 31.7114139534 1.32719944127
555 1 2.99179989302 31.5903328669 3.35839210606
518 2 4.44103098239 32.2401233853 1.57917674132
519 2 4.58481861796 29.6787631903 3.49535915774
846 1 7.24167908503 32.0016086819 1.56212789141
847 1 7.21120802378 29.7554707259 3.26952052566
890 1 5.80072779168 29.9889399749 1.307608932
883 1 5.83600564449 31.7496335073 3.51072857192
1174 1 10.0186230451 32.0001521847 1.5165688114
1175 1 10.0209522599 29.7704367267 3.27414223068
1218 1 8.59549295568 29.9837754903 1.28537207463
1211 1 8.61947942852 31.7662373539 3.53551876666
1539 1 11.4299114589 31.7820656232 3.51405276157
1546 1 11.4311761413 30.0056533113 1.27453129684
1502 1 12.8517328828 32.0098558845 1.51631151848
1503 1 12.8395954617 29.771143906 3.27483433973
1874 1 14.274829715 30.0156170709 1.2896566242
1867 1 14.2591423166 31.7539478409 3.51799948963
1830 1 15.6736993349 32.0027859801 1.51705157736
1831 1 15.6935220932 29.7339055754 3.30043675787
2158 1 18.6056624307 32.1828524378 1.60669750013
2202 1 17.1253633961 30.0883545165 1.35190467783
2159 1 18.6607790523 29.7102891208 3.33391412331
2195 1 17.0761263689 31.6798443594 3.52655779535
2530 2 19.6270745181 30.1495983404 1.00449959439
2486 1 21.567549878 31.3771986506 1.01080083311
2703 1 22.002917214 32.6656554412 3.26621563982
2806 1 22.838714639 30.411960164 2.8952764939
2815 1 25.8890667101 31.1101728652 2.96349453692
3179 1 24.4148870127 30.8845363551 0.99363233501
3178 1 25.8810236457 32.8646613343 0.60921227542
2836 1 24.4043735653 32.8017213664 2.53915034649
3142 1 27.2310741057 30.8629392508 0.827696753835
3470 1 30.0387102485 30.8596393233 0.780478139133
3507 1 28.7068998158 31.0877134031 2.77259457883
3506 1 28.6501106308 32.8661407318 0.611818684282
3798 1 32.848382938 30.8713385963 0.847089661971
3835 1 31.4288965935 31.1048011829 2.83490134395
3834 1 31.4617750474 32.8760317042 0.611389764401
4162 1 34.2558249617 32.8887544897 0.621403767556
4163 1 34.2650550387 31.110392832 2.84668897189
4126 1 35.6560380363 30.887133375 0.84002169851
4491 1 37.0878100684 31.1046006015 2.83806997266
4490 1 37.0700314472 32.8930045197 0.592188576144
4454 1 38.4962645645 30.8972512236 0.826285162682
4782 1 41.2591125589 30.8959050813 0.84021466412
4819 1 39.9230813105 31.1215361724 2.85833984566
235 1 44.2142522994 29.3283628719 3.04458578318
234 1 45.625974377 31.4252638573 2.88120865634
5111 1 44.0263000904 31.0261157602 0.903998342806
5147 1 42.7910380241 31.2536355773 2.9953409749
554 1 2.61646870497 34.0266296976 1.67792232355
247 2 0.639964226413 35.4122545453 1.23893261744
410 1 2.67564018664 36.4033938091 0.00398061185524
509 1 4.39366348289 35.8939985345 1.84043510507
837 1 7.19940113814 36.0271453678 1.90679651654
882 1 5.85047133318 34.0167006555 1.72429655313
510 1 4.34834277584 33.681795504 3.65276093247
1165 1 10.0305273649 36.0182562662 1.95442329044
1210 1 8.62397265331 34.0179410977 1.74306736571
1538 1 11.4362144845 34.0089652753 1.74432142853
1493 1 12.8510729346 36.0139791618 1.96285409321
1866 1 14.2629748259 34.0150191341 1.74152566553
1821 1 15.6317125231 36.0353332389 1.9440674114
2149 1 18.3066826442 36.122625351 1.81998136245
2194 2 16.9557922796 33.9359546717 1.80771408695
2522 2 20.8392056171 33.5464597625 1.27425886106
2850 1 23.0561647338 33.1121423449 0.525682612682
2798 1 23.0544433921 34.7732644095 2.32714106033
3170 1 25.9063882212 35.0113370616 2.32361097475
2842 1 24.5761012181 34.8757715235 0.374297388028
3462 1 30.0724276668 33.1186782676 2.60545588111
3134 1 27.2521561132 33.0745655365 2.64954412444
3133 1 27.2501755099 34.8753650163 0.306991471696
3461 1 30.0562622852 34.8781741647 0.373775296746
3498 1 28.6408551633 35.0673269124 2.36753426194
3790 1 32.8600984541 33.1102879633 2.62706653078
3789 1 32.8561890358 34.8954699063 0.380439604784
3826 1 31.4629069223 35.1200425781 2.37718927571
4154 1 34.2671091717 35.114245092 2.38856032037
4118 1 35.6812888826 33.1095826408 2.61670018581
4117 1 35.6517927729 34.8981957106 0.368339881555
4482 1 37.0841887512 35.1089301646 2.36099860071
4818 1 39.9059410601 32.9114067503 0.564545282761
4774 1 41.3398858355 33.1305105167 2.62120407261
4446 1 38.4984671044 33.0979544819 2.59215148891
4810 1 39.8777178521 35.0897148502 2.31528918444
4445 1 38.4641328432 34.9026898413 0.321520188899
4773 1 41.2343238179 34.9510311139 0.22655735026
190 1 45.6776524583 33.0913177075 0.34769818995
5146 1 42.5211226709 32.9086010851 0.436741550939
5110 2 43.9846951351 33.1493024279 2.05650810944
5138 1 42.5597431475 35.1919620666 2.17959175106
5101 1 44.0065628034 34.9424022694 0.308113537663
40 2 3.07019720255 3.31273142087 4.47497689778
540 1 3.15277692146 0.992512569096 6.21432273231
174 1 0.636307722686 0.973594369009 6.15435611692
402 1 1.85307238512 3.01849782264 6.28637488368
406 1 1.91262984931 1.18849844448 4.15143820553
78 1 0.540344207431 3.25641561695 4.17116604212
407 1 4.38191917868 3.1030899644 6.43038957418
368 1 4.45759245066 1.21650680934 4.17059758891
692 1 7.21142607128 3.03266897958 6.34518870869
696 1 7.16468461133 1.25169806636 4.12282759889
735 1 5.81798592421 1.05898532372 6.14511236446
734 1 5.71875925161 3.28043076574 4.3424528371
1020 1 9.99212886371 3.03309592469 6.38207650431
1024 1 10.0121282816 1.24049708518 4.16284614036
1063 1 8.57918928146 1.01748387073 6.14946902592
1062 1 8.59795769804 3.24836164572 4.35750382823
1391 1 11.4087705756 1.01820706216 6.17870723358
1390 1 11.4245697346 3.25346522911 4.39690807448
1348 1 12.8163253543 3.02641381795 6.40703555804
1352 1 12.8410937842 1.24389955838 4.19260567267
1719 1 14.2394622581 1.02236429871 6.20751870705
1718 1 14.2420418668 3.27681225666 4.43091973126
1676 1 15.6398833549 3.04309976845 6.46723648043
1680 1 15.6441972095 1.2766993857 4.2122007389
2008 1 18.2357878433 1.28099289863 4.17038056222
2047 1 17.0503252927 1.02551582668 6.26077119238
2369 1 18.4886587538 3.00590222039 6.46398187685
2046 1 17.0135182716 3.31816589801 4.49237502717
2333 2 21.7609964791 1.18102798189 5.19550950752
2698 1 19.7291161052 0.826147902585 6.05107575996
2697 1 19.9473246022 3.05489124317 4.47575626802
2325 1 21.1631175044 2.93583083657 6.74692037295
2662 1 22.7325988796 3.19380922347 4.88226981396
2701 1 24.6937193033 2.84182159127 3.76520207315
3033 1 26.0517996122 0.842445359185 4.02864252208
2704 1 24.3071719963 1.12207127445 5.591813962
3030 1 25.7580588833 3.12466734037 5.87809850843
2991 1 27.2991232621 2.83682160014 3.9357603825
2992 1 27.2062360622 1.08665933434 6.14194123083
3319 1 30.0435804912 2.76052369475 3.92510036502
3320 1 30.0428429459 1.04682985982 6.15760901884
3358 1 28.6219437639 3.06267164351 5.93283725424
3361 1 28.6306915008 0.773585753639 4.14796140119
3647 1 32.8426101023 2.7742314886 3.92534280291
3648 1 32.8534914046 0.988143167053 6.16371363602
3686 1 31.4352040818 3.01524423231 5.93198847338
3689 1 31.4440368072 0.779523881028 4.14655802094
4014 1 34.2658147749 2.98199709216 5.93253639849
4017 1 34.2690650226 0.770978664839 4.15782681641
3975 1 35.6757670331 2.7737330243 3.93061430622
3976 1 35.694060943 0.981952968985 6.15688785271
4342 1 37.081328554 2.98623593061 5.93422795577
4345 1 37.0977612013 0.768325183414 4.14364468715
4303 1 38.4805632541 2.78730595836 3.91659065206
4631 1 41.2175942211 2.83796089568 3.90172938739
4304 1 38.4926671482 0.999094294325 6.14572022485
4632 1 41.1947098577 0.982297244626 6.12206771674
4670 1 39.8643918933 3.01833865324 5.92832793471
4673 1 39.8886454274 0.764164149072 4.11224374566
218 1 45.1448970498 1.09824280264 4.09990019699
79 1 45.1132331596 3.01871960013 6.13772744283
4959 1 43.6086251062 2.93774187849 4.13092223481
4998 2 42.4994643581 3.05724337593 6.16636005773
5001 1 42.4397791212 0.738830378467 3.99804649432
37 1 43.7656423228 0.999469902318 6.07967605942
401 1 1.42813491444 5.23153189472 5.36579203289
400 1 2.8869843349 7.27789865854 5.04617068033
393 1 1.38336802054 7.03999717621 7.20646972538
363 1 4.21997267444 5.28835020706 4.49233525222
691 1 7.16690518896 5.23961071627 4.56944667232
729 2 5.81414134632 4.9611579086 6.4678320695
685 1 7.15082738773 7.01482752043 6.86445726223
357 1 4.28146225617 6.84811348745 6.94511524734
728 1 5.70547714052 7.1752550291 4.89754939291
1019 1 10.0161983586 5.26354326542 4.61345460451
1057 1 8.58504838774 5.04921708904 6.60397431458
1013 1 10.0197378207 7.04700400491 6.84865706939
1056 1 8.57374229974 7.22419122474 4.8877609691
1385 1 11.415645551 5.03850783628 6.62186911613
1384 1 11.4487276864 7.29797210784 4.85525383015
1347 1 12.8326737582 5.28629921647 4.62945476416
1713 1 14.2042367466 5.04903313514 6.64047629852
1341 1 12.798173801 7.05278062719 6.83958198375
1675 1 15.6305378065 5.32066630127 4.67415617716
2041 1 17.0531562278 5.05968316986 6.68632077951
2003 1 18.5084982347 5.2300627804 4.71497413841