#Header

8960 atoms

2 atom types

0.0 45.68 xlo xhi
0.0 51.0717926061 ylo yhi
0.0 44.6878185303 zlo zhi


Atoms

1 1 1.4275 5.74557666819 1.91519222273
2 1 1.4275 1.91519222273 0.638397407576
3 1 1.4275 3.19198703788 3.19198703788
4 1 1.4275 4.46878185303 5.74557666819
5 1 1.4275 0.638397407576 4.46878185303
6 1 0.0 3.83038444546 1.27679481515
7 1 0.0 5.10717926061 3.83038444546
8 1 0.0 0.0 0.0
9 1 0.0 1.27679481515 2.5535896303
10 1 0.0 2.5535896303 5.10717926061
11 1 1.4275 5.74557666819 8.29916629849
12 1 1.4275 1.91519222273 7.02237148334
13 1 1.4275 3.19198703788 9.57596111364
14 1 1.4275 4.46878185303 12.1295507439
15 1 1.4275 0.638397407576 10.8527559288
16 1 0.0 3.83038444546 7.66076889091
17 1 0.0 5.10717926061 10.2143585212
18 1 0.0 0.0 6.38397407576
19 1 0.0 1.27679481515 8.93756370607
20 1 0.0 2.5535896303 11.4911533364
21 1 1.4275 5.74557666819 14.6831403743
22 1 1.4275 1.91519222273 13.4063455591
23 1 1.4275 3.19198703788 15.9599351894
24 1 1.4275 4.46878185303 18.5135248197
25 1 1.4275 0.638397407576 17.2367300046
26 1 0.0 3.83038444546 14.0447429667
27 1 0.0 5.10717926061 16.598332597
28 1 0.0 0.0 12.7679481515
29 1 0.0 1.27679481515 15.3215377818
30 1 0.0 2.5535896303 17.8751274121
31 1 1.4275 5.74557666819 21.06711445
32 1 1.4275 1.91519222273 19.7903196349
33 1 1.4275 3.19198703788 22.3439092652
34 1 1.4275 4.46878185303 24.8974988955
35 1 1.4275 0.638397407576 23.6207040803
36 1 0.0 3.83038444546 20.4287170424
37 1 0.0 5.10717926061 22.9823066727
38 1 0.0 0.0 19.1519222273
39 1 0.0 1.27679481515 21.7055118576
40 1 0.0 2.5535896303 24.2591014879
41 1 1.4275 5.74557666819 27.4510885258
42 1 1.4275 1.91519222273 26.1742937106
43 1 1.4275 3.19198703788 28.7278833409
44 1 1.4275 4.46878185303 31.2814729712
45 1 1.4275 0.638397407576 30.0046781561
46 1 0.0 3.83038444546 26.8126911182
47 1 0.0 5.10717926061 29.3662807485
48 1 0.0 0.0 25.535896303
49 1 0.0 1.27679481515 28.0894859334
50 1 0.0 2.5535896303 30.6430755637
51 1 1.4275 5.74557666819 33.8350626015
52 1 1.4275 1.91519222273 32.5582677864
53 1 1.4275 3.19198703788 35.1118574167
54 1 1.4275 4.46878185303 37.665447047
55 1 1.4275 0.638397407576 36.3886522318
56 1 0.0 3.83038444546 33.196665194
57 1 0.0 5.10717926061 35.7502548243
58 1 0.0 0.0 31.9198703788
59 1 0.0 1.27679481515 34.4734600091
60 1 0.0 2.5535896303 37.0270496394
61 1 1.4275 5.74557666819 40.2190366773
62 1 1.4275 1.91519222273 38.9422418622
63 1 1.4275 3.19198703788 41.4958314925
64 1 1.4275 4.46878185303 44.0494211228
65 1 1.4275 0.638397407576 42.7726263076
66 1 0.0 3.83038444546 39.5806392697
67 1 0.0 5.10717926061 42.1342289
68 1 0.0 0.0 38.3038444546
69 1 0.0 1.27679481515 40.8574340849
70 1 0.0 2.5535896303 43.4110237152
71 1 1.4275 12.1295507439 1.91519222273
72 1 1.4275 8.29916629849 0.638397407576
73 1 1.4275 9.57596111364 3.19198703788
74 1 1.4275 10.8527559288 5.74557666819
75 1 1.4275 7.02237148334 4.46878185303
76 1 0.0 10.2143585212 1.27679481515
77 1 0.0 11.4911533364 3.83038444546
78 1 0.0 6.38397407576 0.0
79 1 0.0 7.66076889091 2.5535896303
80 1 0.0 8.93756370607 5.10717926061
81 1 1.4275 12.1295507439 8.29916629849
82 1 1.4275 8.29916629849 7.02237148334
83 1 1.4275 9.57596111364 9.57596111364
84 1 1.4275 10.8527559288 12.1295507439
85 1 1.4275 7.02237148334 10.8527559288
86 1 0.0 10.2143585212 7.66076889091
87 1 0.0 11.4911533364 10.2143585212
88 1 0.0 6.38397407576 6.38397407576
89 1 0.0 7.66076889091 8.93756370607
90 1 0.0 8.93756370607 11.4911533364
91 1 1.4275 12.1295507439 14.6831403743
92 1 1.4275 8.29916629849 13.4063455591
93 1 1.4275 9.57596111364 15.9599351894
94 1 1.4275 10.8527559288 18.5135248197
95 1 1.4275 7.02237148334 17.2367300046
96 1 0.0 10.2143585212 14.0447429667
97 1 0.0 11.4911533364 16.598332597
98 1 0.0 6.38397407576 12.7679481515
99 1 0.0 7.66076889091 15.3215377818
100 1 0.0 8.93756370607 17.8751274121
101 1 1.4275 12.1295507439 21.06711445
102 1 1.4275 8.29916629849 19.7903196349
103 1 1.4275 9.57596111364 22.3439092652
104 1 1.4275 10.8527559288 24.8974988955
105 1 1.4275 7.02237148334 23.6207040803
106 1 0.0 10.2143585212 20.4287170424
107 1 0.0 11.4911533364 22.9823066727
108 1 0.0 6.38397407576 19.1519222273
109 1 0.0 7.66076889091 21.7055118576
110 1 0.0 8.93756370607 24.2591014879
111 1 1.4275 12.1295507439 27.4510885258
112 1 1.4275 8.29916629849 26.1742937106
113 1 1.4275 9.57596111364 28.7278833409
114 1 1.4275 10.8527559288 31.2814729712
115 1 1.4275 7.02237148334 30.0046781561
116 1 0.0 10.2143585212 26.8126911182
117 1 0.0 11.4911533364 29.3662807485
118 1 0.0 6.38397407576 25.535896303
119 1 0.0 7.66076889091 28.0894859334
120 1 0.0 8.93756370607 30.6430755637
121 1 1.4275 12.1295507439 33.8350626015
122 1 1.4275 8.29916629849 32.5582677864
123 1 1.4275 9.57596111364 35.1118574167
124 1 1.4275 10.8527559288 37.665447047
125 1 1.4275 7.02237148334 36.3886522318
126 1 0.0 10.2143585212 33.196665194
127 1 0.0 11.4911533364 35.7502548243
128 1 0.0 6.38397407576 31.9198703788
129 1 0.0 7.66076889091 34.4734600091
130 1 0.0 8.93756370607 37.0270496394
131 1 1.4275 12.1295507439 40.2190366773
132 1 1.4275 8.29916629849 38.9422418622
133 1 1.4275 9.57596111364 41.4958314925
134 1 1.4275 10.8527559288 44.0494211228
135 1 1.4275 7.02237148334 42.7726263076
136 1 0.0 10.2143585212 39.5806392697
137 1 0.0 11.4911533364 42.1342289
138 1 0.0 6.38397407576 38.3038444546
139 1 0.0 7.66076889091 40.8574340849
140 1 0.0 8.93756370607 43.4110237152
141 1 1.4275 18.5135248197 1.91519222273
142 1 1.4275 14.6831403743 0.638397407576
143 1 1.4275 15.9599351894 3.19198703788
144 1 1.4275 17.2367300046 5.74557666819
145 1 1.4275 13.4063455591 4.46878185303
146 1 0.0 16.598332597 1.27679481515
147 1 0.0 17.8751274121 3.83038444546
148 1 0.0 12.7679481515 0.0
149 1 0.0 14.0447429667 2.5535896303
150 1 0.0 15.3215377818 5.10717926061
151 1 1.4275 18.5135248197 8.29916629849
152 1 1.4275 14.6831403743 7.02237148334
153 1 1.4275 15.9599351894 9.57596111364
154 1 1.4275 17.2367300046 12.1295507439
155 1 1.4275 13.4063455591 10.8527559288
156 1 0.0 16.598332597 7.66076889091
157 1 0.0 17.8751274121 10.2143585212
158 1 0.0 12.7679481515 6.38397407576
159 1 0.0 14.0447429667 8.93756370607
160 1 0.0 15.3215377818 11.4911533364
161 1 1.4275 18.5135248197 14.6831403743
162 1 1.4275 14.6831403743 13.4063455591
163 1 1.4275 15.9599351894 15.9599351894
164 1 1.4275 17.2367300046 18.5135248197
165 1 1.4275 13.4063455591 17.2367300046
166 1 0.0 16.598332597 14.0447429667
167 1 0.0 17.8751274121 16.598332597
168 1 0.0 12.7679481515 12.7679481515
169 1 0.0 14.0447429667 15.3215377818
170 1 0.0 15.3215377818 17.8751274121
171 1 1.4275 18.5135248197 21.06711445
172 1 1.4275 14.6831403743 19.7903196349
173 1 1.4275 15.9599351894 22.3439092652
174 1 1.4275 17.2367300046 24.8974988955
175 1 1.4275 13.4063455591 23.6207040803
176 1 0.0 16.598332597 20.4287170424
177 1 0.0 17.8751274121 22.9823066727
178 1 0.0 12.7679481515 19.1519222273
179 1 0.0 14.0447429667 21.7055118576
180 1 0.0 15.3215377818 24.2591014879
181 1 1.4275 18.5135248197 27.4510885258
182 1 1.4275 14.6831403743 26.1742937106
183 1 1.4275 15.9599351894 28.7278833409
184 1 1.4275 17.2367300046 31.2814729712
185 1 1.4275 13.4063455591 30.0046781561
186 1 0.0 16.598332597 26.8126911182
187 1 0.0 17.8751274121 29.3662807485
188 1 0.0 12.7679481515 25.535896303
189 1 0.0 14.0447429667 28.0894859334
190 1 0.0 15.3215377818 30.6430755637
191 1 1.4275 18.5135248197 33.8350626015
192 1 1.4275 14.6831403743 32.5582677864
193 1 1.4275 15.9599351894 35.1118574167
194 1 1.4275 17.2367300046 37.665447047
195 1 1.4275 13.4063455591 36.3886522318
196 1 0.0 16.598332597 33.196665194
197 1 0.0 17.8751274121 35.7502548243
198 1 0.0 12.7679481515 31.9198703788
199 1 0.0 14.0447429667 34.4734600091
200 1 0.0 15.3215377818 37.0270496394
201 1 1.4275 18.5135248197 40.2190366773
202 1 1.4275 14.6831403743 38.9422418622
203 1 1.4275 15.9599351894 41.4958314925
204 1 1.4275 17.2367300046 44.0494211228
205 1 1.4275 13.4063455591 42.7726263076
206 1 0.0 16.598332597 39.5806392697
207 1 0.0 17.8751274121 42.1342289
208 1 0.0 12.7679481515 38.3038444546
209 1 0.0 14.0447429667 40.8574340849
210 1 0.0 15.3215377818 43.4110237152
211 1 1.4275 24.8974988955 1.91519222273
212 1 1.4275 21.06711445 0.638397407576
213 1 1.4275 22.3439092652 3.19198703788
214 1 1.4275 23.6207040803 5.74557666819
215 1 1.4275 19.7903196349 4.46878185303
216 1 0.0 22.9823066727 1.27679481515
217 1 0.0 24.2591014879 3.83038444546
218 1 0.0 19.1519222273 0.0
219 1 0.0 20.4287170424 2.5535896303
220 1 0.0 21.7055118576 5.10717926061
221 1 1.4275 24.8974988955 8.29916629849
222 1 1.4275 21.06711445 7.02237148334
223 1 1.4275 22.3439092652 9.57596111364
224 1 1.4275 23.6207040803 12.1295507439
225 1 1.4275 19.7903196349 10.8527559288
226 1 0.0 22.9823066727 7.66076889091
227 1 0.0 24.2591014879 10.2143585212
228 1 0.0 19.1519222273 6.38397407576
229 1 0.0 20.4287170424 8.93756370607
230 1 0.0 21.7055118576 11.4911533364
231 1 1.4275 24.8974988955 14.6831403743
232 1 1.4275 21.06711445 13.4063455591
233 1 1.4275 22.3439092652 15.9599351894
234 1 1.4275 23.6207040803 18.5135248197
235 1 1.4275 19.7903196349 17.2367300046
236 1 0.0 22.9823066727 14.0447429667
237 1 0.0 24.2591014879 16.598332597
238 1 0.0 19.1519222273 12.7679481515
239 1 0.0 20.4287170424 15.3215377818
240 1 0.0 21.7055118576 17.8751274121
241 1 1.4275 24.8974988955 21.06711445
242 1 1.4275 21.06711445 19.7903196349
243 1 1.4275 22.3439092652 22.3439092652
244 1 1.4275 23.6207040803 24.8974988955
245 1 1.4275 19.7903196349 23.6207040803
246 1 0.0 22.9823066727 20.4287170424
247 1 0.0 24.2591014879 22.9823066727
248 1 0.0 19.1519222273 19.1519222273
249 1 0.0 20.4287170424 21.7055118576
250 1 0.0 21.7055118576 24.2591014879
251 1 1.4275 24.8974988955 27.4510885258
252 1 1.4275 21.06711445 26.1742937106
253 1 1.4275 22.3439092652 28.7278833409
254 1 1.4275 23.6207040803 31.2814729712
255 1 1.4275 19.7903196349 30.0046781561
256 1 0.0 22.9823066727 26.8126911182
257 1 0.0 24.2591014879 29.3662807485
258 1 0.0 19.1519222273 25.535896303
259 1 0.0 20.4287170424 28.0894859334
260 1 0.0 21.7055118576 30.6430755637
261 1 1.4275 24.8974988955 33.8350626015
262 1 1.4275 21.06711445 32.5582677864
263 1 1.4275 22.3439092652 35.1118574167
264 1 1.4275 23.6207040803 37.665447047
265 1 1.4275 19.7903196349 36.3886522318
266 1 0.0 22.9823066727 33.196665194
267 1 0.0 24.2591014879 35.7502548243
268 1 0.0 19.1519222273 31.9198703788
269 1 0.0 20.4287170424 34.4734600091
270 1 0.0 21.7055118576 37.0270496394
271 1 1.4275 24.8974988955 40.2190366773
272 1 1.4275 21.06711445 38.9422418622
273 1 1.4275 22.3439092652 41.4958314925
274 1 1.4275 23.6207040803 44.0494211228
275 1 1.4275 19.7903196349 42.7726263076
276 1 0.0 22.9823066727 39.5806392697
277 1 0.0 24.2591014879 42.1342289
278 1 0.0 19.1519222273 38.3038444546
279 1 0.0 20.4287170424 40.8574340849
280 1 0.0 21.7055118576 43.4110237152
281 1 1.4275 31.2814729712 1.91519222273
282 1 1.4275 27.4510885258 0.638397407576
283 1 1.4275 28.7278833409 3.19198703788
284 1 1.4275 30.0046781561 5.74557666819
285 1 1.4275 26.1742937106 4.46878185303
286 1 0.0 29.3662807485 1.27679481515
287 1 0.0 30.6430755637 3.83038444546
288 1 0.0 25.535896303 0.0
289 1 0.0 26.8126911182 2.5535896303
290 1 0.0 28.0894859334 5.10717926061
291 1 1.4275 31.2814729712 8.29916629849
292 1 1.4275 27.4510885258 7.02237148334
293 1 1.4275 28.7278833409 9.57596111364
294 1 1.4275 30.0046781561 12.1295507439
295 1 1.4275 26.1742937106 10.8527559288
296 1 0.0 29.3662807485 7.66076889091
297 1 0.0 30.6430755637 10.2143585212
298 1 0.0 25.535896303 6.38397407576
299 1 0.0 26.8126911182 8.93756370607
300 1 0.0 28.0894859334 11.4911533364
301 1 1.4275 31.2814729712 14.6831403743
302 1 1.4275 27.4510885258 13.4063455591
303 1 1.4275 28.7278833409 15.9599351894
304 1 1.4275 30.0046781561 18.5135248197
305 1 1.4275 26.1742937106 17.2367300046
306 1 0.0 29.3662807485 14.0447429667
307 1 0.0 30.6430755637 16.598332597
308 1 0.0 25.535896303 12.7679481515
309 1 0.0 26.8126911182 15.3215377818
310 1 0.0 28.0894859334 17.8751274121
311 1 1.4275 31.2814729712 21.06711445
312 1 1.4275 27.4510885258 19.7903196349
313 1 1.4275 28.7278833409 22.3439092652
314 1 1.4275 30.0046781561 24.8974988955
315 1 1.4275 26.1742937106 23.6207040803
316 1 0.0 29.3662807485 20.4287170424
317 1 0.0 30.6430755637 22.9823066727
318 1 0.0 25.535896303 19.1519222273
319 1 0.0 26.8126911182 21.7055118576
320 1 0.0 28.0894859334 24.2591014879
321 1 1.4275 31.2814729712 27.4510885258
322 1 1.4275 27.4510885258 26.1742937106
323 1 1.4275 28.7278833409 28.7278833409
324 1 1.4275 30.0046781561 31.2814729712
325 1 1.4275 26.1742937106 30.0046781561
326 1 0.0 29.3662807485 26.8126911182
327 1 0.0 30.6430755637 29.3662807485
328 1 0.0 25.535896303 25.535896303
329 1 0.0 26.8126911182 28.0894859334
330 1 0.0 28.0894859334 30.6430755637
331 1 1.4275 31.2814729712 33.8350626015
332 1 1.4275 27.4510885258 32.5582677864
333 1 1.4275 28.7278833409 35.1118574167
334 1 1.4275 30.0046781561 37.665447047
335 1 1.4275 26.1742937106 36.3886522318
336 1 0.0 29.3662807485 33.196665194
337 1 0.0 30.6430755637 35.7502548243
338 1 0.0 25.535896303 31.9198703788
339 1 0.0 26.8126911182 34.4734600091
340 1 0.0 28.0894859334 37.0270496394
341 1 1.4275 31.2814729712 40.2190366773
342 1 1.4275 27.4510885258 38.9422418622
343 1 1.4275 28.7278833409 41.4958314925
344 1 1.4275 30.0046781561 44.0494211228
345 1 1.4275 26.1742937106 42.7726263076
346 1 0.0 29.3662807485 39.5806392697
347 1 0.0 30.6430755637 42.1342289
348 1 0.0 25.535896303 38.3038444546
349 1 0.0 26.8126911182 40.8574340849
350 1 0.0 28.0894859334 43.4110237152
351 1 1.4275 37.665447047 1.91519222273
352 1 1.4275 33.8350626015 0.638397407576
353 1 1.4275 35.1118574167 3.19198703788
354 1 1.4275 36.3886522318 5.74557666819
355 1 1.4275 32.5582677864 4.46878185303
356 1 0.0 35.7502548243 1.27679481515
357 1 0.0 37.0270496394 3.83038444546
358 1 0.0 31.9198703788 0.0
359 1 0.0 33.196665194 2.5535896303
360 1 0.0 34.4734600091 5.10717926061
361 1 1.4275 37.665447047 8.29916629849
362 1 1.4275 33.8350626015 7.02237148334
363 1 1.4275 35.1118574167 9.57596111364
364 1 1.4275 36.3886522318 12.1295507439
365 1 1.4275 32.5582677864 10.8527559288
366 1 0.0 35.7502548243 7.66076889091
367 1 0.0 37.0270496394 10.2143585212
368 1 0.0 31.9198703788 6.38397407576
369 1 0.0 33.196665194 8.93756370607
370 1 0.0 34.4734600091 11.4911533364
371 1 1.4275 37.665447047 14.6831403743
372 1 1.4275 33.8350626015 13.4063455591
373 1 1.4275 35.1118574167 15.9599351894
374 1 1.4275 36.3886522318 18.5135248197
375 1 1.4275 32.5582677864 17.2367300046
376 1 0.0 35.7502548243 14.0447429667
377 1 0.0 37.0270496394 16.598332597
378 1 0.0 31.9198703788 12.7679481515
379 1 0.0 33.196665194 15.3215377818
380 1 0.0 34.4734600091 17.8751274121
381 1 1.4275 37.665447047 21.06711445
382 1 1.4275 33.8350626015 19.7903196349
383 1 1.4275 35.1118574167 22.3439092652
384 1 1.4275 36.3886522318 24.8974988955
385 1 1.4275 32.5582677864 23.6207040803
386 1 0.0 35.7502548243 20.4287170424
387 1 0.0 37.0270496394 22.9823066727
388 1 0.0 31.9198703788 19.1519222273
389 1 0.0 33.196665194 21.7055118576
390 1 0.0 34.4734600091 24.2591014879
391 1 1.4275 37.665447047 27.4510885258
392 1 1.4275 33.8350626015 26.1742937106
393 1 1.4275 35.1118574167 28.7278833409
394 1 1.4275 36.3886522318 31.2814729712
395 1 1.4275 32.5582677864 30.0046781561
396 1 0.0 35.7502548243 26.8126911182
397 1 0.0 37.0270496394 29.3662807485
398 1 0.0 31.9198703788 25.535896303
399 1 0.0 33.196665194 28.0894859334
400 1 0.0 34.4734600091 30.6430755637
401 1 1.4275 37.665447047 33.8350626015
402 1 1.4275 33.8350626015 32.5582677864
403 1 1.4275 35.1118574167 35.1118574167
404 1 1.4275 36.3886522318 37.665447047
405 1 1.4275 32.5582677864 36.3886522318
406 1 0.0 35.7502548243 33.196665194
407 1 0.0 37.0270496394 35.7502548243
408 1 0.0 31.9198703788 31.9198703788
409 1 0.0 33.196665194 34.4734600091
410 1 0.0 34.4734600091 37.0270496394
411 1 1.4275 37.665447047 40.2190366773
412 1 1.4275 33.8350626015 38.9422418622
413 1 1.4275 35.1118574167 41.4958314925
414 1 1.4275 36.3886522318 44.0494211228
415 1 1.4275 32.5582677864 42.7726263076
416 1 0.0 35.7502548243 39.5806392697
417 1 0.0 37.0270496394 42.1342289
418 1 0.0 31.9198703788 38.3038444546
419 1 0.0 33.196665194 40.8574340849
420 1 0.0 34.4734600091 43.4110237152
421 1 1.4275 44.0494211228 1.91519222273
422 1 1.4275 40.2190366773 0.638397407576
423 1 1.4275 41.4958314925 3.19198703788
424 1 1.4275 42.7726263076 5.74557666819
425 1 1.4275 38.9422418622 4.46878185303
426 1 0.0 42.1342289 1.27679481515
427 1 0.0 43.4110237152 3.83038444546
428 1 0.0 38.3038444546 0.0
429 1 0.0 39.5806392697 2.5535896303
430 1 0.0 40.8574340849 5.10717926061
431 1 1.4275 44.0494211228 8.29916629849
432 1 1.4275 40.2190366773 7.02237148334
433 1 1.4275 41.4958314925 9.57596111364
434 1 1.4275 42.7726263076 12.1295507439
435 1 1.4275 38.9422418622 10.8527559288
436 1 0.0 42.1342289 7.66076889091
437 1 0.0 43.4110237152 10.2143585212
438 1 0.0 38.3038444546 6.38397407576
439 1 0.0 39.5806392697 8.93756370607
440 1 0.0 40.8574340849 11.4911533364
441 1 1.4275 44.0494211228 14.6831403743
442 1 1.4275 40.2190366773 13.4063455591
443 1 1.4275 41.4958314925 15.9599351894
444 1 1.4275 42.7726263076 18.5135248197
445 1 1.4275 38.9422418622 17.2367300046
446 1 0.0 42.1342289 14.0447429667
447 1 0.0 43.4110237152 16.598332597
448 1 0.0 38.3038444546 12.7679481515
449 1 0.0 39.5806392697 15.3215377818
450 1 0.0 40.8574340849 17.8751274121
451 1 1.4275 44.0494211228 21.06711445
452 1 1.4275 40.2190366773 19.7903196349
453 1 1.4275 41.4958314925 22.3439092652
454 1 1.4275 42.7726263076 24.8974988955
455 1 1.4275 38.9422418622 23.6207040803
456 1 0.0 42.1342289 20.4287170424
457 1 0.0 43.4110237152 22.9823066727
458 1 0.0 38.3038444546 19.1519222273
459 1 0.0 39.5806392697 21.7055118576
460 1 0.0 40.8574340849 24.2591014879
461 1 1.4275 44.0494211228 27.4510885258
462 1 1.4275 40.2190366773 26.1742937106
463 1 1.4275 41.4958314925 28.7278833409
464 1 1.4275 42.7726263076 31.2814729712
465 1 1.4275 38.9422418622 30.0046781561
466 1 0.0 42.1342289 26.8126911182
467 1 0.0 43.4110237152 29.3662807485
468 1 0.0 38.3038444546 25.535896303
469 1 0.0 39.5806392697 28.0894859334
470 1 0.0 40.8574340849 30.6430755637
471 1 1.4275 44.0494211228 33.8350626015
472 1 1.4275 40.2190366773 32.5582677864
473 1 1.4275 41.4958314925 35.1118574167
474 1 1.4275 42.7726263076 37.665447047
475 1 1.4275 38.9422418622 36.3886522318
476 1 0.0 42.1342289 33.196665194
477 1 0.0 43.4110237152 35.7502548243
478 1 0.0 38.3038444546 31.9198703788
479 1 0.0 39.5806392697 34.4734600091
480 1 0.0 40.8574340849 37.0270496394
481 1 1.4275 44.0494211228 40.2190366773
482 1 1.4275 40.2190366773 38.9422418622
483 1 1.4275 41.4958314925 41.4958314925
484 1 1.4275 42.7726263076 44.0494211228
485 1 1.4275 38.9422418622 42.7726263076
486 1 0.0 42.1342289 39.5806392697
487 1 0.0 43.4110237152 42.1342289
488 1 0.0 38.3038444546 38.3038444546
489 1 0.0 39.5806392697 40.8574340849
490 1 0.0 40.8574340849 43.4110237152
491 1 1.4275 50.4333951985 1.91519222273
492 1 1.4275 46.6030107531 0.638397407576
493 1 1.4275 47.8798055682 3.19198703788
494 1 1.4275 49.1566003834 5.74557666819
495 1 1.4275 45.3262159379 4.46878185303
496 1 0.0 48.5182029758 1.27679481515
497 1 0.0 49.7949977909 3.83038444546
498 1 0.0 44.6878185303 0.0
499 1 0.0 45.9646133455 2.5535896303
500 1 0.0 47.2414081606 5.10717926061
501 1 1.4275 50.4333951985 8.29916629849
502 1 1.4275 46.6030107531 7.02237148334
503 1 1.4275 47.8798055682 9.57596111364
504 1 1.4275 49.1566003834 12.1295507439
505 1 1.4275 45.3262159379 10.8527559288
506 1 0.0 48.5182029758 7.66076889091
507 1 0.0 49.7949977909 10.2143585212
508 1 0.0 44.6878185303 6.38397407576
509 1 0.0 45.9646133455 8.93756370607
510 1 0.0 47.2414081606 11.4911533364
511 1 1.4275 50.4333951985 14.6831403743
512 1 1.4275 46.6030107531 13.4063455591
513 1 1.4275 47.8798055682 15.9599351894
514 1 1.4275 49.1566003834 18.5135248197
515 1 1.4275 45.3262159379 17.2367300046
516 1 0.0 48.5182029758 14.0447429667
517 1 0.0 49.7949977909 16.598332597
518 1 0.0 44.6878185303 12.7679481515
519 1 0.0 45.9646133455 15.3215377818
520 1 0.0 47.2414081606 17.8751274121
521 1 1.4275 50.4333951985 21.06711445
522 1 1.4275 46.6030107531 19.7903196349
523 1 1.4275 47.8798055682 22.3439092652
524 1 1.4275 49.1566003834 24.8974988955
525 1 1.4275 45.3262159379 23.6207040803
526 1 0.0 48.5182029758 20.4287170424
527 1 0.0 49.7949977909 22.9823066727
528 1 0.0 44.6878185303 19.1519222273
529 1 0.0 45.9646133455 21.7055118576
530 1 0.0 47.2414081606 24.2591014879
531 1 1.4275 50.4333951985 27.4510885258
532 1 1.4275 46.6030107531 26.1742937106
533 1 1.4275 47.8798055682 28.7278833409
534 1 1.4275 49.1566003834 31.2814729712
535 1 1.4275 45.3262159379 30.0046781561
536 1 0.0 48.5182029758 26.8126911182
537 1 0.0 49.7949977909 29.3662807485
538 1 0.0 44.6878185303 25.535896303
539 1 0.0 45.9646133455 28.0894859334
540 1 0.0 47.2414081606 30.6430755637
541 1 1.4275 50.4333951985 33.8350626015
542 1 1.4275 46.6030107531 32.5582677864
543 1 1.4275 47.8798055682 35.1118574167
544 1 1.4275 49.1566003834 37.665447047
545 1 1.4275 45.3262159379 36.3886522318
546 1 0.0 48.5182029758 33.196665194
547 1 0.0 49.7949977909 35.7502548243
548 1 0.0 44.6878185303 31.9198703788
549 1 0.0 45.9646133455 34.4734600091
550 1 0.0 47.2414081606 37.0270496394
551 1 1.4275 50.4333951985 40.2190366773
552 1 1.4275 46.6030107531 38.9422418622
553 1 1.4275 47.8798055682 41.4958314925
554 1 1.4275 49.1566003834 44.0494211228
555 1 1.4275 45.3262159379 42.7726263076
556 1 0.0 48.5182029758 39.5806392697
557 1 0.0 49.7949977909 42.1342289
558 1 0.0 44.6878185303 38.3038444546
559 1 0.0 45.9646133455 40.8574340849
560 1 0.0 47.2414081606 43.4110237152
561 1 4.2825 5.74557666819 1.91519222273
562 1 4.2825 1.91519222273 0.638397407576
563 1 4.2825 3.19198703788 3.19198703788
564 1 4.2825 4.46878185303 5.74557666819
565 1 4.2825 0.638397407576 4.46878185303
566 1 2.855 3.83038444546 1.27679481515
567 1 2.855 5.10717926061 3.83038444546
568 1 2.855 0.0 0.0
569 1 2.855 1.27679481515 2.5535896303
570 1 2.855 2.5535896303 5.10717926061
571 1 4.2825 5.74557666819 8.29916629849
572 1 4.2825 1.91519222273 7.02237148334
573 1 4.2825 3.19198703788 9.57596111364
574 1 4.2825 4.46878185303 12.1295507439
575 1 4.2825 0.638397407576 10.8527559288
576 1 2.855 3.83038444546 7.66076889091
577 1 2.855 5.10717926061 10.2143585212
578 1 2.855 0.0 6.38397407576
579 1 2.855 1.27679481515 8.93756370607
580 1 2.855 2.5535896303 11.4911533364
581 1 4.2825 5.74557666819 14.6831403743
582 1 4.2825 1.91519222273 13.4063455591
583 1 4.2825 3.19198703788 15.9599351894
584 1 4.2825 4.46878185303 18.5135248197
585 1 4.2825 0.638397407576 17.2367300046
586 1 2.855 3.83038444546 14.0447429667
587 1 2.855 5.10717926061 16.598332597
588 1 2.855 0.0 12.7679481515
589 1 2.855 1.27679481515 15.3215377818
590 1 2.855 2.5535896303 17.8751274121
591 1 4.2825 5.74557666819 21.06711445
592 1 4.2825 1.91519222273 19.7903196349
593 1 4.2825 3.19198703788 22.3439092652
594 1 4.2825 4.46878185303 24.8974988955
595 1 4.2825 0.638397407576 23.6207040803
596 1 2.855 3.83038444546 20.4287170424
597 1 2.855 5.10717926061 22.9823066727
598 1 2.855 0.0 19.1519222273
599 1 2.855 1.27679481515 21.7055118576
600 1 2.855 2.5535896303 24.2591014879
601 1 4.2825 5.74557666819 27.4510885258
602 1 4.2825 1.91519222273 26.1742937106
603 1 4.2825 3.19198703788 28.7278833409
604 1 4.2825 4.46878185303 31.2814729712
605 1 4.2825 0.638397407576 30.0046781561
606 1 2.855 3.83038444546 26.8126911182
607 1 2.855 5.10717926061 29.3662807485
608 1 2.855 0.0 25.535896303
609 1 2.855 1.27679481515 28.0894859334
610 1 2.855 2.5535896303 30.6430755637
611 1 4.2825 5.74557666819 33.8350626015
612 1 4.2825 1.91519222273 32.5582677864
613 1 4.2825 3.19198703788 35.1118574167
614 1 4.2825 4.46878185303 37.665447047
615 1 4.2825 0.638397407576 36.3886522318
616 1 2.855 3.83038444546 33.196665194
617 1 2.855 5.10717926061 35.7502548243
618 1 2.855 0.0 31.9198703788
619 1 2.855 1.27679481515 34.4734600091
620 1 2.855 2.5535896303 37.0270496394
621 1 4.2825 5.74557666819 40.2190366773
622 1 4.2825 1.91519222273 38.9422418622
623 1 4.2825 3.19198703788 41.4958314925
624 1 4.2825 4.46878185303 44.0494211228
625 1 4.2825 0.638397407576 42.7726263076
626 1 2.855 3.83038444546 39.5806392697
627 1 2.855 5.10717926061 42.1342289
628 1 2.855 0.0 38.3038444546
629 1 2.855 1.27679481515 40.8574340849
630 1 2.855 2.5535896303 43.4110237152
631 1 4.2825 12.1295507439 1.91519222273
632 1 4.2825 8.29916629849 0.638397407576
633 1 4.2825 9.57596111364 3.19198703788
634 1 4.2825 10.8527559288 5.74557666819
635 1 4.2825 7.02237148334 4.46878185303
636 1 2.855 10.2143585212 1.27679481515
637 1 2.855 11.4911533364 3.83038444546
638 1 2.855 6.38397407576 0.0
639 1 2.855 7.66076889091 2.5535896303
640 1 2.855 8.93756370607 5.10717926061
641 1 4.2825 12.1295507439 8.29916629849
642 1 4.2825 8.29916629849 7.02237148334
643 1 4.2825 9.57596111364 9.57596111364
644 1 4.2825 10.8527559288 12.1295507439
645 1 4.2825 7.02237148334 10.8527559288
646 1 2.855 10.2143585212 7.66076889091
647 1 2.855 11.4911533364 10.2143585212
648 1 2.855 6.38397407576 6.38397407576
649 1 2.855 7.66076889091 8.93756370607
650 1 2.855 8.93756370607 11.4911533364
651 1 4.2825 12.1295507439 14.6831403743
652 1 4.2825 8.29916629849 13.4063455591
653 1 4.2825 9.57596111364 15.9599351894
654 1 4.2825 10.8527559288 18.5135248197
655 1 4.2825 7.02237148334 17.2367300046
656 1 2.855 10.2143585212 14.0447429667
657 1 2.855 11.4911533364 16.598332597
658 1 2.855 6.38397407576 12.7679481515
659 1 2.855 7.66076889091 15.3215377818
660 1 2.855 8.93756370607 17.8751274121
661 1 4.2825 12.1295507439 21.06711445
662 1 4.2825 8.29916629849 19.7903196349
663 1 4.2825 9.57596111364 22.3439092652
664 1 4.2825 10.8527559288 24.8974988955
665 1 4.2825 7.02237148334 23.6207040803
666 1 2.855 10.2143585212 20.4287170424
667 1 2.855 11.4911533364 22.9823066727
668 1 2.855 6.38397407576 19.1519222273
669 1 2.855 7.66076889091 21.7055118576
670 1 2.855 8.93756370607 24.2591014879
671 1 4.2825 12.1295507439 27.4510885258
672 1 4.2825 8.29916629849 26.1742937106
673 1 4.2825 9.57596111364 28.7278833409
674 1 4.2825 10.8527559288 31.2814729712
675 1 4.2825 7.02237148334 30.0046781561
676 1 2.855 10.2143585212 26.8126911182
677 1 2.855 11.4911533364 29.3662807485
678 1 2.855 6.38397407576 25.535896303
679 1 2.855 7.66076889091 28.0894859334
680 1 2.855 8.93756370607 30.6430755637
681 1 4.2825 12.1295507439 33.8350626015
682 1 4.2825 8.29916629849 32.5582677864
683 1 4.2825 9.57596111364 35.1118574167
684 1 4.2825 10.8527559288 37.665447047
685 1 4.2825 7.02237148334 36.3886522318
686 1 2.855 10.2143585212 33.196665194
687 1 2.855 11.4911533364 35.7502548243
688 1 2.855 6.38397407576 31.9198703788
689 1 2.855 7.66076889091 34.4734600091
690 1 2.855 8.93756370607 37.0270496394
691 1 4.2825 12.1295507439 40.2190366773
692 1 4.2825 8.29916629849 38.9422418622
693 1 4.2825 9.57596111364 41.4958314925
694 1 4.2825 10.8527559288 44.0494211228
695 1 4.2825 7.02237148334 42.7726263076
696 1 2.855 10.2143585212 39.5806392697
697 1 2.855 11.4911533364 42.1342289
698 1 2.855 6.38397407576 38.3038444546
699 1 2.855 7.66076889091 40.8574340849
700 1 2.855 8.93756370607 43.4110237152
701 1 4.2825 18.5135248197 1.91519222273
702 1 4.2825 14.6831403743 0.638397407576
703 1 4.2825 15.9599351894 3.19198703788
704 1 4.2825 17.2367300046 5.74557666819
705 1 4.2825 13.4063455591 4.46878185303
706 1 2.855 16.598332597 1.27679481515
707 1 2.855 17.8751274121 3.83038444546
708 1 2.855 12.7679481515 0.0
709 1 2.855 14.0447429667 2.5535896303
710 1 2.855 15.3215377818 5.10717926061
711 1 4.2825 18.5135248197 8.29916629849
712 1 4.2825 14.6831403743 7.02237148334
713 1 4.2825 15.9599351894 9.57596111364
714 1 4.2825 17.2367300046 12.1295507439
715 1 4.2825 13.4063455591 10.8527559288
716 1 2.855 16.598332597 7.66076889091
717 1 2.855 17.8751274121 10.2143585212
718 1 2.855 12.7679481515 6.38397407576
719 1 2.855 14.0447429667 8.93756370607
720 1 2.855 15.3215377818 11.4911533364
721 1 4.2825 18.5135248197 14.6831403743
722 1 4.2825 14.6831403743 13.4063455591
723 1 4.2825 15.9599351894 15.9599351894
724 1 4.2825 17.2367300046 18.5135248197
725 1 4.2825 13.4063455591 17.2367300046
726 1 2.855 16.598332597 14.0447429667
727 1 2.855 17.8751274121 16.598332597
728 1 2.855 12.7679481515 12.7679481515
729 1 2.855 14.0447429667 15.3215377818
730 1 2.855 15.3215377818 17.8751274121
731 1 4.2825 18.5135248197 21.06711445
732 1 4.2825 14.6831403743 19.7903196349
733 1 4.2825 15.9599351894 22.3439092652
734 1 4.2825 17.2367300046 24.8974988955
735 1 4.2825 13.4063455591 23.6207040803
736 1 2.855 16.598332597 20.4287170424
737 1 2.855 17.8751274121 22.9823066727
738 1 2.855 12.7679481515 19.1519222273
739 1 2.855 14.0447429667 21.7055118576
740 1 2.855 15.3215377818 24.2591014879
741 1 4.2825 18.5135248197 27.4510885258
742 1 4.2825 14.6831403743 26.1742937106
743 1 4.2825 15.9599351894 28.7278833409
744 1 4.2825 17.2367300046 31.2814729712
745 1 4.2825 13.4063455591 30.0046781561
746 1 2.855 16.598332597 26.8126911182
747 1 2.855 17.8751274121 29.3662807485
748 1 2.855 12.7679481515 25.535896303
749 1 2.855 14.0447429667 28.0894859334
750 1 2.855 15.3215377818 30.6430755637
751 1 4.2825 18.5135248197 33.8350626015
752 1 4.2825 14.6831403743 32.5582677864
753 1 4.2825 15.9599351894 35.1118574167
754 1 4.2825 17.2367300046 37.665447047
755 1 4.2825 13.4063455591 36.3886522318
756 1 2.855 16.598332597 33.196665194
757 1 2.855 17.8751274121 35.7502548243
758 1 2.855 12.7679481515 31.9198703788
759 1 2.855 14.0447429667 34.4734600091
760 1 2.855 15.3215377818 37.0270496394
761 1 4.2825 18.5135248197 40.2190366773
762 1 4.2825 14.6831403743 38.9422418622
763 1 4.2825 15.9599351894 41.4958314925
764 1 4.2825 17.2367300046 44.0494211228