ITEM: TIMESTEP
0
ITEM: NUMBER OF ATOMS
5376
ITEM: BOX BOUNDS pp pp pp
0.0 39.5600404449
0.0 42.7297273569
0.0 37.0050293879
ITEM: ATOMS id type x y z
1 1 0.824167509269 8.39333930227 0.440536064142
2 1 0.824167509269 1.52606169132 1.76214425657
3 1 0.0 0.0 0.0
4 1 2.4725025278 0.0 0.0
5 1 0.824167509269 5.34121591963 3.08375244898
6 1 0.0 3.81515422829 1.32160819242
7 1 2.4725025278 3.81515422829 1.32160819242
8 1 0.824167509269 9.15637014792 4.40536064142
9 1 0.0 7.63030845659 2.64321638485
10 1 2.4725025278 7.63030845659 2.64321638485
11 1 1.64833501854 6.10424676528 0.881072128283
12 1 4.12083754633 6.10424676528 0.881072128283
13 1 1.64833501854 9.91940099358 2.20268032071
14 1 4.12083754633 9.91940099358 2.20268032071
15 1 3.29667003707 8.39333930227 0.440536064142
16 1 0.824167509269 2.28909253698 5.72696883385
17 1 3.96210841913e-16 0.763030845659 3.96482457728
18 1 2.4725025278 0.763030845659 3.96482457728
19 1 0.824167509269 6.10424676528 7.04857702626
20 1 4.75453010296e-16 4.57818507395 5.28643276972
21 1 2.4725025278 4.57818507395 5.28643276972
22 1 1.64833501854 3.05212338264 3.52428851314
23 1 4.12083754633 3.05212338264 3.52428851314
24 1 3.29667003707 1.52606169132 1.76214425657
25 1 0.824167509269 9.91940099358 8.37018521869
26 1 9.50906020593e-16 8.39333930227 6.60804096212
27 1 2.4725025278 8.39333930227 6.60804096212
28 1 1.64833501854 6.86727761093 4.84589670555
29 1 4.12083754633 6.86727761093 4.84589670555
30 1 3.29667003707 5.34121591963 3.08375244898
31 1 3.29667003707 9.15637014792 4.40536064142
32 1 0.824167509269 3.05212338264 9.69179341113
33 1 7.92421683825e-16 1.52606169132 7.92964915456
34 1 2.4725025278 1.52606169132 7.92964915456
35 1 1.64833501854 0.0 6.16750489799
36 1 4.12083754633 0.0 6.16750489799
37 1 0.824167509269 6.86727761093 11.0134016035
38 1 1.08487274513e-15 5.34121591963 9.25125734697
39 1 2.4725025278 5.34121591963 9.25125734697
40 1 1.64833501854 3.81515422829 7.48911309042
41 1 4.12083754633 3.81515422829 7.48911309042
42 1 3.29667003707 2.28909253698 5.72696883385
43 1 9.50906020593e-16 9.15637014792 10.5728655394
44 1 2.4725025278 9.15637014792 10.5728655394
45 1 1.64833501854 7.63030845659 8.81072128283
46 1 4.12083754633 7.63030845659 8.81072128283
47 1 3.29667003707 6.10424676528 7.04857702626
48 1 3.29667003707 9.91940099358 8.37018521869
49 1 0.824167509269 0.0 12.335009796
50 1 0.824167509269 3.81515422829 13.6566179884
51 1 1.26787469412e-15 2.28909253698 11.8944737318
52 1 2.4725025278 2.28909253698 11.8944737318
53 1 1.64833501854 0.763030845659 10.1323294753
54 1 4.12083754633 0.763030845659 10.1323294753
55 1 0.824167509269 7.63030845659 14.9782261808
56 1 6.33937347061e-16 6.10424676528 13.2160819242
57 1 2.4725025278 6.10424676528 13.2160819242
58 1 1.64833501854 4.57818507395 11.4539376677
59 1 4.12083754633 4.57818507395 11.4539376677
60 1 3.29667003707 3.05212338264 9.69179341113
61 1 1.58484336765e-15 9.91940099358 14.5376901167
62 1 2.4725025278 9.91940099358 14.5376901167
63 1 1.64833501854 8.39333930227 12.7755458601
64 1 4.12083754633 8.39333930227 12.7755458601
65 1 3.29667003707 6.86727761093 11.0134016035
66 1 0.824167509269 0.763030845659 16.2998343733
67 1 0.824167509269 4.57818507395 17.6214425657
68 1 1.58484336765e-15 3.05212338264 15.8592983091
69 1 2.4725025278 3.05212338264 15.8592983091
70 1 1.64833501854 1.52606169132 14.0971540525
71 1 4.12083754633 1.52606169132 14.0971540525
72 1 3.29667003707 0.0 12.335009796
73 1 1.42635903089e-15 6.86727761093 17.1809065015
74 1 2.4725025278 6.86727761093 17.1809065015
75 1 1.64833501854 5.34121591963 15.418762245
76 1 4.12083754633 5.34121591963 15.418762245
77 1 3.29667003707 3.81515422829 13.6566179884
78 1 1.64833501854 9.15637014792 16.7403704374
79 1 4.12083754633 9.15637014792 16.7403704374
80 1 3.29667003707 7.63030845659 14.9782261808
81 1 1.64833501854 2.28909253698 18.0619786298
82 1 4.12083754633 2.28909253698 18.0619786298
83 1 3.29667003707 0.763030845659 16.2998343733
84 1 3.29667003707 4.57818507395 17.6214425657
85 1 0.824167509269 8.39333930227 18.9430507581
86 1 0.824167509269 1.52606169132 20.2646589505
87 1 0.0 0.0 18.502514694
88 1 2.4725025278 0.0 18.502514694
89 1 0.824167509269 5.34121591963 21.5862671429
90 1 0.0 3.81515422829 19.8241228864
91 1 2.4725025278 3.81515422829 19.8241228864
92 1 0.824167509269 9.15637014792 22.9078753354
93 1 0.0 7.63030845659 21.1457310788
94 1 2.4725025278 7.63030845659 21.1457310788
95 1 1.64833501854 6.10424676528 19.3835868222
96 1 4.12083754633 6.10424676528 19.3835868222
97 1 1.64833501854 9.91940099358 20.7051950147
98 1 4.12083754633 9.91940099358 20.7051950147
99 1 3.29667003707 8.39333930227 18.9430507581
100 1 0.824167509269 2.28909253698 24.2294835278
101 1 3.96210841913e-16 0.763030845659 22.4673392712
102 1 2.4725025278 0.763030845659 22.4673392712
103 1 0.824167509269 6.10424676528 25.5510917202
104 1 4.75453010296e-16 4.57818507395 23.7889474637
105 1 2.4725025278 4.57818507395 23.7889474637
106 1 1.64833501854 3.05212338264 22.0268032071
107 1 4.12083754633 3.05212338264 22.0268032071
108 1 3.29667003707 1.52606169132 20.2646589505
109 1 0.824167509269 9.91940099358 26.8726999127
110 1 9.50906020593e-16 8.39333930227 25.1105556561
111 1 2.4725025278 8.39333930227 25.1105556561
112 1 1.64833501854 6.86727761093 23.3484113995
113 1 4.12083754633 6.86727761093 23.3484113995
114 1 3.29667003707 5.34121591963 21.5862671429
115 1 3.29667003707 9.15637014792 22.9078753354
116 1 0.824167509269 3.05212338264 28.1943081051
117 1 7.92421683825e-16 1.52606169132 26.4321638485
118 1 2.4725025278 1.52606169132 26.4321638485
119 1 1.64833501854 0.0 24.6700195919
120 1 4.12083754633 0.0 24.6700195919
121 1 0.824167509269 6.86727761093 29.5159162975
122 1 1.08487274513e-15 5.34121591963 27.7537720409
123 1 2.4725025278 5.34121591963 27.7537720409
124 1 1.64833501854 3.81515422829 25.9916277844
125 1 4.12083754633 3.81515422829 25.9916277844
126 1 3.29667003707 2.28909253698 24.2294835278
127 1 9.50906020593e-16 9.15637014792 29.0753802334
128 1 2.4725025278 9.15637014792 29.0753802334
129 1 1.64833501854 7.63030845659 27.3132359768
130 1 4.12083754633 7.63030845659 27.3132359768
131 1 3.29667003707 6.10424676528 25.5510917202
132 1 3.29667003707 9.91940099358 26.8726999127
133 1 0.824167509269 0.0 30.8375244899
134 1 0.824167509269 3.81515422829 32.1591326823
135 1 1.26787469412e-15 2.28909253698 30.3969884258
136 1 2.4725025278 2.28909253698 30.3969884258
137 1 1.64833501854 0.763030845659 28.6348441692
138 1 4.12083754633 0.763030845659 28.6348441692
139 1 0.824167509269 7.63030845659 33.4807408748
140 1 6.33937347061e-16 6.10424676528 31.7185966182
141 1 2.4725025278 6.10424676528 31.7185966182
142 1 1.64833501854 4.57818507395 29.9564523616
143 1 4.12083754633 4.57818507395 29.9564523616
144 1 3.29667003707 3.05212338264 28.1943081051
145 1 1.58484336765e-15 9.91940099358 33.0402048106
146 1 2.4725025278 9.91940099358 33.0402048106
147 1 1.64833501854 8.39333930227 31.2780605541
148 1 4.12083754633 8.39333930227 31.2780605541
149 1 3.29667003707 6.86727761093 29.5159162975
150 1 0.824167509269 0.763030845659 34.8023490672
151 1 0.824167509269 4.57818507395 36.1239572596
152 1 1.58484336765e-15 3.05212338264 34.3618130031
153 1 2.4725025278 3.05212338264 34.3618130031
154 1 1.64833501854 1.52606169132 32.5996687465
155 1 4.12083754633 1.52606169132 32.5996687465
156 1 3.29667003707 0.0 30.8375244899
157 1 1.42635903089e-15 6.86727761093 35.6834211955
158 1 2.4725025278 6.86727761093 35.6834211955
159 1 1.64833501854 5.34121591963 33.9212769389
160 1 4.12083754633 5.34121591963 33.9212769389
161 1 3.29667003707 3.81515422829 32.1591326823
162 1 1.64833501854 9.15637014792 35.2428851313
163 1 4.12083754633 9.15637014792 35.2428851313
164 1 3.29667003707 7.63030845659 33.4807408748
165 1 1.64833501854 2.28909253698 36.5644933238
166 1 4.12083754633 2.28909253698 36.5644933238
167 1 3.29667003707 0.763030845659 34.8023490672
168 1 3.29667003707 4.57818507395 36.1239572596
169 1 0.824167509269 19.0757711415 0.440536064142
170 1 0.824167509269 12.2084935305 1.76214425657
171 1 0.0 10.6824318392 0.0
172 1 2.4725025278 10.6824318392 0.0
173 1 0.824167509269 16.0236477589 3.08375244898
174 1 0.0 14.4975860675 1.32160819242
175 1 2.4725025278 14.4975860675 1.32160819242
176 1 0.824167509269 19.8388019872 4.40536064142
177 1 0.0 18.3127402958 2.64321638485
178 1 2.4725025278 18.3127402958 2.64321638485
179 1 1.64833501854 16.7866786045 0.881072128283
180 1 4.12083754633 16.7866786045 0.881072128283
181 1 1.64833501854 20.6018328328 2.20268032071
182 1 4.12083754633 20.6018328328 2.20268032071
183 1 3.29667003707 19.0757711415 0.440536064142
184 1 0.824167509269 12.9715243762 5.72696883385
185 1 3.96210841913e-16 11.4454626849 3.96482457728
186 1 2.4725025278 11.4454626849 3.96482457728
187 1 0.824167509269 16.7866786045 7.04857702626
188 1 4.75453010296e-16 15.2606169132 5.28643276972
189 1 2.4725025278 15.2606169132 5.28643276972
190 1 1.64833501854 13.7345552219 3.52428851314
191 1 4.12083754633 13.7345552219 3.52428851314
192 1 3.29667003707 12.2084935305 1.76214425657
193 1 0.824167509269 20.6018328328 8.37018521869
194 1 9.50906020593e-16 19.0757711415 6.60804096212
195 1 2.4725025278 19.0757711415 6.60804096212
196 1 1.64833501854 17.5497094502 4.84589670555
197 1 4.12083754633 17.5497094502 4.84589670555
198 1 3.29667003707 16.0236477589 3.08375244898
199 1 3.29667003707 19.8388019872 4.40536064142
200 1 0.824167509269 13.7345552219 9.69179341113
201 1 7.92421683825e-16 12.2084935305 7.92964915456
202 1 2.4725025278 12.2084935305 7.92964915456
203 1 1.64833501854 10.6824318392 6.16750489799
204 1 4.12083754633 10.6824318392 6.16750489799
205 1 0.824167509269 17.5497094502 11.0134016035
206 1 1.08487274513e-15 16.0236477589 9.25125734697
207 1 2.4725025278 16.0236477589 9.25125734697
208 1 1.64833501854 14.4975860675 7.48911309042
209 1 4.12083754633 14.4975860675 7.48911309042
210 1 3.29667003707 12.9715243762 5.72696883385
211 1 9.50906020593e-16 19.8388019872 10.5728655394
212 1 2.4725025278 19.8388019872 10.5728655394
213 1 1.64833501854 18.3127402958 8.81072128283
214 1 4.12083754633 18.3127402958 8.81072128283
215 1 3.29667003707 16.7866786045 7.04857702626
216 1 3.29667003707 20.6018328328 8.37018521869
217 1 0.824167509269 10.6824318392 12.335009796
218 1 0.824167509269 14.4975860675 13.6566179884
219 1 1.26787469412e-15 12.9715243762 11.8944737318
220 1 2.4725025278 12.9715243762 11.8944737318
221 1 1.64833501854 11.4454626849 10.1323294753
222 1 4.12083754633 11.4454626849 10.1323294753
223 1 0.824167509269 18.3127402958 14.9782261808
224 1 6.33937347061e-16 16.7866786045 13.2160819242
225 1 2.4725025278 16.7866786045 13.2160819242
226 1 1.64833501854 15.2606169132 11.4539376677
227 1 4.12083754633 15.2606169132 11.4539376677
228 1 3.29667003707 13.7345552219 9.69179341113
229 1 1.58484336765e-15 20.6018328328 14.5376901167
230 1 2.4725025278 20.6018328328 14.5376901167
231 1 1.64833501854 19.0757711415 12.7755458601
232 1 4.12083754633 19.0757711415 12.7755458601
233 1 3.29667003707 17.5497094502 11.0134016035
234 1 0.824167509269 11.4454626849 16.2998343733
235 1 0.824167509269 15.2606169132 17.6214425657
236 1 1.58484336765e-15 13.7345552219 15.8592983091
237 1 2.4725025278 13.7345552219 15.8592983091
238 1 1.64833501854 12.2084935305 14.0971540525
239 1 4.12083754633 12.2084935305 14.0971540525
240 1 3.29667003707 10.6824318392 12.335009796
241 1 1.42635903089e-15 17.5497094502 17.1809065015
242 1 2.4725025278 17.5497094502 17.1809065015
243 1 1.64833501854 16.0236477589 15.418762245
244 1 4.12083754633 16.0236477589 15.418762245
245 1 3.29667003707 14.4975860675 13.6566179884
246 1 1.64833501854 19.8388019872 16.7403704374
247 1 4.12083754633 19.8388019872 16.7403704374
248 1 3.29667003707 18.3127402958 14.9782261808
249 1 1.64833501854 12.9715243762 18.0619786298
250 1 4.12083754633 12.9715243762 18.0619786298
251 1 3.29667003707 11.4454626849 16.2998343733
252 1 3.29667003707 15.2606169132 17.6214425657
253 1 0.824167509269 19.0757711415 18.9430507581
254 1 0.824167509269 12.2084935305 20.2646589505
255 1 0.0 10.6824318392 18.502514694
256 1 2.4725025278 10.6824318392 18.502514694
257 1 0.824167509269 16.0236477589 21.5862671429
258 1 0.0 14.4975860675 19.8241228864
259 1 2.4725025278 14.4975860675 19.8241228864
260 1 0.824167509269 19.8388019872 22.9078753354
261 1 0.0 18.3127402958 21.1457310788
262 1 2.4725025278 18.3127402958 21.1457310788
263 1 1.64833501854 16.7866786045 19.3835868222
264 1 4.12083754633 16.7866786045 19.3835868222
265 1 1.64833501854 20.6018328328 20.7051950147
266 1 4.12083754633 20.6018328328 20.7051950147
267 1 3.29667003707 19.0757711415 18.9430507581
268 1 0.824167509269 12.9715243762 24.2294835278
269 1 3.96210841913e-16 11.4454626849 22.4673392712
270 1 2.4725025278 11.4454626849 22.4673392712
271 1 0.824167509269 16.7866786045 25.5510917202
272 1 4.75453010296e-16 15.2606169132 23.7889474637
273 1 2.4725025278 15.2606169132 23.7889474637
274 1 1.64833501854 13.7345552219 22.0268032071
275 1 4.12083754633 13.7345552219 22.0268032071
276 1 3.29667003707 12.2084935305 20.2646589505
277 1 0.824167509269 20.6018328328 26.8726999127
278 1 9.50906020593e-16 19.0757711415 25.1105556561
279 1 2.4725025278 19.0757711415 25.1105556561
280 1 1.64833501854 17.5497094502 23.3484113995
281 1 4.12083754633 17.5497094502 23.3484113995
282 1 3.29667003707 16.0236477589 21.5862671429
283 1 3.29667003707 19.8388019872 22.9078753354
284 1 0.824167509269 13.7345552219 28.1943081051
285 1 7.92421683825e-16 12.2084935305 26.4321638485
286 1 2.4725025278 12.2084935305 26.4321638485
287 1 1.64833501854 10.6824318392 24.6700195919
288 1 4.12083754633 10.6824318392 24.6700195919
289 1 0.824167509269 17.5497094502 29.5159162975
290 1 1.08487274513e-15 16.0236477589 27.7537720409
291 1 2.4725025278 16.0236477589 27.7537720409
292 1 1.64833501854 14.4975860675 25.9916277844
293 1 4.12083754633 14.4975860675 25.9916277844
294 1 3.29667003707 12.9715243762 24.2294835278
295 1 9.50906020593e-16 19.8388019872 29.0753802334
296 1 2.4725025278 19.8388019872 29.0753802334
297 1 1.64833501854 18.3127402958 27.3132359768
298 1 4.12083754633 18.3127402958 27.3132359768
299 1 3.29667003707 16.7866786045 25.5510917202
300 1 3.29667003707 20.6018328328 26.8726999127
301 1 0.824167509269 10.6824318392 30.8375244899
302 1 0.824167509269 14.4975860675 32.1591326823
303 1 1.26787469412e-15 12.9715243762 30.3969884258
304 1 2.4725025278 12.9715243762 30.3969884258
305 1 1.64833501854 11.4454626849 28.6348441692
306 1 4.12083754633 11.4454626849 28.6348441692
307 1 0.824167509269 18.3127402958 33.4807408748
308 1 6.33937347061e-16 16.7866786045 31.7185966182
309 1 2.4725025278 16.7866786045 31.7185966182
310 1 1.64833501854 15.2606169132 29.9564523616
311 1 4.12083754633 15.2606169132 29.9564523616
312 1 3.29667003707 13.7345552219 28.1943081051
313 1 1.58484336765e-15 20.6018328328 33.0402048106
314 1 2.4725025278 20.6018328328 33.0402048106
315 1 1.64833501854 19.0757711415 31.2780605541
316 1 4.12083754633 19.0757711415 31.2780605541
317 1 3.29667003707 17.5497094502 29.5159162975
318 1 0.824167509269 11.4454626849 34.8023490672
319 1 0.824167509269 15.2606169132 36.1239572596
320 1 1.58484336765e-15 13.7345552219 34.3618130031
321 1 2.4725025278 13.7345552219 34.3618130031
322 1 1.64833501854 12.2084935305 32.5996687465
323 1 4.12083754633 12.2084935305 32.5996687465
324 1 3.29667003707 10.6824318392 30.8375244899
325 1 1.42635903089e-15 17.5497094502 35.6834211955
326 1 2.4725025278 17.5497094502 35.6834211955
327 1 1.64833501854 16.0236477589 33.9212769389
328 1 4.12083754633 16.0236477589 33.9212769389
329 1 3.29667003707 14.4975860675 32.1591326823
330 1 1.64833501854 19.8388019872 35.2428851313
331 1 4.12083754633 19.8388019872 35.2428851313
332 1 3.29667003707 18.3127402958 33.4807408748
333 1 1.64833501854 12.9715243762 36.5644933238
334 1 4.12083754633 12.9715243762 36.5644933238
335 1 3.29667003707 11.4454626849 34.8023490672
336 1 3.29667003707 15.2606169132 36.1239572596
337 1 0.824167509269 29.7582029807 0.440536064142
338 1 0.824167509269 22.8909253698 1.76214425657
339 1 0.0 21.3648636785 0.0
340 1 2.4725025278 21.3648636785 0.0
341 1 0.824167509269 26.7060795981 3.08375244898
342 1 0.0 25.1800179068 1.32160819242
343 1 2.4725025278 25.1800179068 1.32160819242
344 1 0.824167509269 30.5212338264 4.40536064142
345 1 0.0 28.995172135 2.64321638485
346 1 2.4725025278 28.995172135 2.64321638485
347 1 1.64833501854 27.4691104437 0.881072128283
348 1 4.12083754633 27.4691104437 0.881072128283
349 1 1.64833501854 31.284264672 2.20268032071
350 1 4.12083754633 31.284264672 2.20268032071
351 1 3.29667003707 29.7582029807 0.440536064142
352 1 0.824167509269 23.6539562154 5.72696883385
353 1 3.96210841913e-16 22.1278945241 3.96482457728
354 1 2.4725025278 22.1278945241 3.96482457728
355 1 0.824167509269 27.4691104437 7.04857702626
356 1 4.75453010296e-16 25.9430487524 5.28643276972
357 1 2.4725025278 25.9430487524 5.28643276972
358 1 1.64833501854 24.4169870611 3.52428851314
359 1 4.12083754633 24.4169870611 3.52428851314
360 1 3.29667003707 22.8909253698 1.76214425657
361 1 0.824167509269 31.284264672 8.37018521869
362 1 9.50906020593e-16 29.7582029807 6.60804096212
363 1 2.4725025278 29.7582029807 6.60804096212
364 1 1.64833501854 28.2321412894 4.84589670555
365 1 4.12083754633 28.2321412894 4.84589670555
366 1 3.29667003707 26.7060795981 3.08375244898
367 1 3.29667003707 30.5212338264 4.40536064142
368 1 0.824167509269 24.4169870611 9.69179341113
369 1 7.92421683825e-16 22.8909253698 7.92964915456
370 1 2.4725025278 22.8909253698 7.92964915456
371 1 1.64833501854 21.3648636785 6.16750489799
372 1 4.12083754633 21.3648636785 6.16750489799
373 1 0.824167509269 28.2321412894 11.0134016035
374 1 1.08487274513e-15 26.7060795981 9.25125734697
375 1 2.4725025278 26.7060795981 9.25125734697
376 1 1.64833501854 25.1800179068 7.48911309042
377 1 4.12083754633 25.1800179068 7.48911309042
378 1 3.29667003707 23.6539562154 5.72696883385
379 1 9.50906020593e-16 30.5212338264 10.5728655394
380 1 2.4725025278 30.5212338264 10.5728655394
381 1 1.64833501854 28.995172135 8.81072128283
382 1 4.12083754633 28.995172135 8.81072128283
383 1 3.29667003707 27.4691104437 7.04857702626
384 1 3.29667003707 31.284264672 8.37018521869
385 1 0.824167509269 21.3648636785 12.335009796
386 1 0.824167509269 25.1800179068 13.6566179884
387 1 1.26787469412e-15 23.6539562154 11.8944737318
388 1 2.4725025278 23.6539562154 11.8944737318
389 1 1.64833501854 22.1278945241 10.1323294753
390 1 4.12083754633 22.1278945241 10.1323294753
391 1 0.824167509269 28.995172135 14.9782261808
392 1 6.33937347061e-16 27.4691104437 13.2160819242
393 1 2.4725025278 27.4691104437 13.2160819242
394 1 1.64833501854 25.9430487524 11.4539376677
395 1 4.12083754633 25.9430487524 11.4539376677
396 1 3.29667003707 24.4169870611 9.69179341113
397 1 1.58484336765e-15 31.284264672 14.5376901167
398 1 2.4725025278 31.284264672 14.5376901167
399 1 1.64833501854 29.7582029807 12.7755458601
400 1 4.12083754633 29.7582029807 12.7755458601
401 1 3.29667003707 28.2321412894 11.0134016035
402 1 0.824167509269 22.1278945241 16.2998343733
403 1 0.824167509269 25.9430487524 17.6214425657
404 1 1.58484336765e-15 24.4169870611 15.8592983091
405 1 2.4725025278 24.4169870611 15.8592983091
406 1 1.64833501854 22.8909253698 14.0971540525
407 1 4.12083754633 22.8909253698 14.0971540525
408 1 3.29667003707 21.3648636785 12.335009796
409 1 1.42635903089e-15 28.2321412894 17.1809065015
410 1 2.4725025278 28.2321412894 17.1809065015
411 1 1.64833501854 26.7060795981 15.418762245
412 1 4.12083754633 26.7060795981 15.418762245
413 1 3.29667003707 25.1800179068 13.6566179884
414 1 1.64833501854 30.5212338264 16.7403704374
415 1 4.12083754633 30.5212338264 16.7403704374
416 1 3.29667003707 28.995172135 14.9782261808
417 1 1.64833501854 23.6539562154 18.0619786298
418 1 4.12083754633 23.6539562154 18.0619786298
419 1 3.29667003707 22.1278945241 16.2998343733
420 1 3.29667003707 25.9430487524 17.6214425657
421 1 0.824167509269 29.7582029807 18.9430507581
422 1 0.824167509269 22.8909253698 20.2646589505
423 1 0.0 21.3648636785 18.502514694
424 1 2.4725025278 21.3648636785 18.502514694
425 1 0.824167509269 26.7060795981 21.5862671429
426 1 0.0 25.1800179068 19.8241228864
427 1 2.4725025278 25.1800179068 19.8241228864
428 1 0.824167509269 30.5212338264 22.9078753354
429 1 0.0 28.995172135 21.1457310788
430 1 2.4725025278 28.995172135 21.1457310788
431 1 1.64833501854 27.4691104437 19.3835868222
432 1 4.12083754633 27.4691104437 19.3835868222
433 1 1.64833501854 31.284264672 20.7051950147
434 1 4.12083754633 31.284264672 20.7051950147
435 1 3.29667003707 29.7582029807 18.9430507581
436 1 0.824167509269 23.6539562154 24.2294835278
437 1 3.96210841913e-16 22.1278945241 22.4673392712
438 1 2.4725025278 22.1278945241 22.4673392712
439 1 0.824167509269 27.4691104437 25.5510917202
440 1 4.75453010296e-16 25.9430487524 23.7889474637
441 1 2.4725025278 25.9430487524 23.7889474637
442 1 1.64833501854 24.4169870611 22.0268032071
443 1 4.12083754633 24.4169870611 22.0268032071
444 1 3.29667003707 22.8909253698 20.2646589505
445 1 0.824167509269 31.284264672 26.8726999127
446 1 9.50906020593e-16 29.7582029807 25.1105556561
447 1 2.4725025278 29.7582029807 25.1105556561
448 1 1.64833501854 28.2321412894 23.3484113995
449 1 4.12083754633 28.2321412894 23.3484113995
450 1 3.29667003707 26.7060795981 21.5862671429
451 1 3.29667003707 30.5212338264 22.9078753354
452 1 0.824167509269 24.4169870611 28.1943081051
453 1 7.92421683825e-16 22.8909253698 26.4321638485
454 1 2.4725025278 22.8909253698 26.4321638485
455 1 1.64833501854 21.3648636785 24.6700195919
456 1 4.12083754633 21.3648636785 24.6700195919
457 1 0.824167509269 28.2321412894 29.5159162975
458 1 1.08487274513e-15 26.7060795981 27.7537720409
459 1 2.4725025278 26.7060795981 27.7537720409
460 1 1.64833501854 25.1800179068 25.9916277844
461 1 4.12083754633 25.1800179068 25.9916277844
462 1 3.29667003707 23.6539562154 24.2294835278
463 1 9.50906020593e-16 30.5212338264 29.0753802334
464 1 2.4725025278 30.5212338264 29.0753802334
465 1 1.64833501854 28.995172135 27.3132359768
466 1 4.12083754633 28.995172135 27.3132359768
467 1 3.29667003707 27.4691104437 25.5510917202
468 1 3.29667003707 31.284264672 26.8726999127
469 1 0.824167509269 21.3648636785 30.8375244899
470 1 0.824167509269 25.1800179068 32.1591326823
471 1 1.26787469412e-15 23.6539562154 30.3969884258
472 1 2.4725025278 23.6539562154 30.3969884258
473 1 1.64833501854 22.1278945241 28.6348441692
474 1 4.12083754633 22.1278945241 28.6348441692
475 1 0.824167509269 28.995172135 33.4807408748
476 1 6.33937347061e-16 27.4691104437 31.7185966182
477 1 2.4725025278 27.4691104437 31.7185966182
478 1 1.64833501854 25.9430487524 29.9564523616
479 1 4.12083754633 25.9430487524 29.9564523616
480 1 3.29667003707 24.4169870611 28.1943081051
481 1 1.58484336765e-15 31.284264672 33.0402048106
482 1 2.4725025278 31.284264672 33.0402048106
483 1 1.64833501854 29.7582029807 31.2780605541
484 1 4.12083754633 29.7582029807 31.2780605541
485 1 3.29667003707 28.2321412894 29.5159162975
486 1 0.824167509269 22.1278945241 34.8023490672
487 1 0.824167509269 25.9430487524 36.1239572596
488 1 1.58484336765e-15 24.4169870611 34.3618130031
489 1 2.4725025278 24.4169870611 34.3618130031
490 1 1.64833501854 22.8909253698 32.5996687465
491 1 4.12083754633 22.8909253698 32.5996687465
492 1 3.29667003707 21.3648636785 30.8375244899
493 1 1.42635903089e-15 28.2321412894 35.6834211955
494 1 2.4725025278 28.2321412894 35.6834211955
495 1 1.64833501854 26.7060795981 33.9212769389
496 1 4.12083754633 26.7060795981 33.9212769389
497 1 3.29667003707 25.1800179068 32.1591326823
498 1 1.64833501854 30.5212338264 35.2428851313
499 1 4.12083754633 30.5212338264 35.2428851313
500 1 3.29667003707 28.995172135 33.4807408748
501 1 1.64833501854 23.6539562154 36.5644933238
502 1 4.12083754633 23.6539562154 36.5644933238
503 1 3.29667003707 22.1278945241 34.8023490672
504 1 3.29667003707 25.9430487524 36.1239572596
505 1 0.824167509269 40.44063482 0.440536064142
506 1 0.824167509269 33.573357209 1.76214425657
507 1 0.0 32.0472955177 0.0
508 1 2.4725025278 32.0472955177 0.0
509 1 0.824167509269 37.3885114373 3.08375244898
510 1 0.0 35.862449746 1.32160819242
511 1 2.4725025278 35.862449746 1.32160819242
512 1 0.824167509269 41.2036656656 4.40536064142
513 1 0.0 39.6776039743 2.64321638485
514 1 2.4725025278 39.6776039743 2.64321638485
515 1 1.64833501854 38.151542283 0.881072128283
516 1 4.12083754633 38.151542283 0.881072128283
517 1 1.64833501854 41.9666965113 2.20268032071
518 1 4.12083754633 41.9666965113 2.20268032071
519 1 3.29667003707 40.44063482 0.440536064142
520 1 0.824167509269 34.3363880547 5.72696883385
521 1 3.96210841913e-16 32.8103263633 3.96482457728
522 1 2.4725025278 32.8103263633 3.96482457728
523 1 0.824167509269 38.151542283 7.04857702626
524 1 4.75453010296e-16 36.6254805916 5.28643276972
525 1 2.4725025278 36.6254805916 5.28643276972
526 1 1.64833501854 35.0994189003 3.52428851314
527 1 4.12083754633 35.0994189003 3.52428851314
528 1 3.29667003707 33.573357209 1.76214425657
529 1 0.824167509269 41.9666965113 8.37018521869
530 1 9.50906020593e-16 40.44063482 6.60804096212
531 1 2.4725025278 40.44063482 6.60804096212
532 1 1.64833501854 38.9145731286 4.84589670555
533 1 4.12083754633 38.9145731286 4.84589670555
534 1 3.29667003707 37.3885114373 3.08375244898
535 1 3.29667003707 41.2036656656 4.40536064142
536 1 0.824167509269 35.0994189003 9.69179341113
537 1 7.92421683825e-16 33.573357209 7.92964915456
538 1 2.4725025278 33.573357209 7.92964915456
539 1 1.64833501854 32.0472955177 6.16750489799
540 1 4.12083754633 32.0472955177 6.16750489799
541 1 0.824167509269 38.9145731286 11.0134016035
542 1 1.08487274513e-15 37.3885114373 9.25125734697
543 1 2.4725025278 37.3885114373 9.25125734697
544 1 1.64833501854 35.862449746 7.48911309042
545 1 4.12083754633 35.862449746 7.48911309042
546 1 3.29667003707 34.3363880547 5.72696883385
547 1 9.50906020593e-16 41.2036656656 10.5728655394
548 1 2.4725025278 41.2036656656 10.5728655394
549 1 1.64833501854 39.6776039743 8.81072128283
550 1 4.12083754633 39.6776039743 8.81072128283
551 1 3.29667003707 38.151542283 7.04857702626
552 1 3.29667003707 41.9666965113 8.37018521869
553 1 0.824167509269 32.0472955177 12.335009796
554 1 0.824167509269 35.862449746 13.6566179884
555 1 1.26787469412e-15 34.3363880547 11.8944737318
556 1 2.4725025278 34.3363880547 11.8944737318
557 1 1.64833501854 32.8103263633 10.1323294753
558 1 4.12083754633 32.8103263633 10.1323294753
559 1 0.824167509269 39.6776039743 14.9782261808
560 1 6.33937347061e-16 38.151542283 13.2160819242
561 1 2.4725025278 38.151542283 13.2160819242
562 1 1.64833501854 36.6254805916 11.4539376677
563 1 4.12083754633 36.6254805916 11.4539376677
564 1 3.29667003707 35.0994189003 9.69179341113
565 1 1.58484336765e-15 41.9666965113 14.5376901167
566 1 2.4725025278 41.9666965113 14.5376901167
567 1 1.64833501854 40.44063482 12.7755458601
568 1 4.12083754633 40.44063482 12.7755458601
569 1 3.29667003707 38.9145731286 11.0134016035
570 1 0.824167509269 32.8103263633 16.2998343733
571 1 0.824167509269 36.6254805916 17.6214425657
572 1 1.58484336765e-15 35.0994189003 15.8592983091
573 1 2.4725025278 35.0994189003 15.8592983091
574 1 1.64833501854 33.573357209 14.0971540525
575 1 4.12083754633 33.573357209 14.0971540525
576 1 3.29667003707 32.0472955177 12.335009796
577 1 1.42635903089e-15 38.9145731286 17.1809065015
578 1 2.4725025278 38.9145731286 17.1809065015
579 1 1.64833501854 37.3885114373 15.418762245
580 1 4.12083754633 37.3885114373 15.418762245
581 1 3.29667003707 35.862449746 13.6566179884
582 1 1.64833501854 41.2036656656 16.7403704374
583 1 4.12083754633 41.2036656656 16.7403704374
584 1 3.29667003707 39.6776039743 14.9782261808
585 1 1.64833501854 34.3363880547 18.0619786298
586 1 4.12083754633 34.3363880547 18.0619786298
587 1 3.29667003707 32.8103263633 16.2998343733
588 1 3.29667003707 36.6254805916 17.6214425657
589 1 0.824167509269 40.44063482 18.9430507581
590 1 0.824167509269 33.573357209 20.2646589505
591 1 0.0 32.0472955177 18.502514694
592 1 2.4725025278 32.0472955177 18.502514694
593 1 0.824167509269 37.3885114373 21.5862671429
594 1 0.0 35.862449746 19.8241228864
595 1 2.4725025278 35.862449746 19.8241228864
596 1 0.824167509269 41.2036656656 22.9078753354
597 1 0.0 39.6776039743 21.1457310788
598 1 2.4725025278 39.6776039743 21.1457310788
599 1 1.64833501854 38.151542283 19.3835868222
600 1 4.12083754633 38.151542283 19.3835868222
601 1 1.64833501854 41.9666965113 20.7051950147
602 1 4.12083754633 41.9666965113 20.7051950147
603 1 3.29667003707 40.44063482 18.9430507581
604 1 0.824167509269 34.3363880547 24.2294835278
605 1 3.96210841913e-16 32.8103263633 22.4673392712
606 1 2.4725025278 32.8103263633 22.4673392712
607 1 0.824167509269 38.151542283 25.5510917202
608 1 4.75453010296e-16 36.6254805916 23.7889474637
609 1 2.4725025278 36.6254805916 23.7889474637
610 1 1.64833501854 35.0994189003 22.0268032071
611 1 4.12083754633 35.0994189003 22.0268032071
612 1 3.29667003707 33.573357209 20.2646589505
613 1 0.824167509269 41.9666965113 26.8726999127
614 1 9.50906020593e-16 40.44063482 25.1105556561
615 1 2.4725025278 40.44063482 25.1105556561
616 1 1.64833501854 38.9145731286 23.3484113995
617 1 4.12083754633 38.9145731286 23.3484113995
618 1 3.29667003707 37.3885114373 21.5862671429
619 1 3.29667003707 41.2036656656 22.9078753354
620 1 0.824167509269 35.0994189003 28.1943081051
621 1 7.92421683825e-16 33.573357209 26.4321638485
622 1 2.4725025278 33.573357209 26.4321638485
623 1 1.64833501854 32.0472955177 24.6700195919
624 1 4.12083754633 32.0472955177 24.6700195919
625 1 0.824167509269 38.9145731286 29.5159162975
626 1 1.08487274513e-15 37.3885114373 27.7537720409
627 1 2.4725025278 37.3885114373 27.7537720409